# vtk DataFile Version 2.0
I need something to put here
ASCII

DATASET STRUCTURED_GRID
DIMENSIONS 41 21 21
POINTS 18081 float
0.000000 0.000000 0.000000
0.100000 0.000000 0.000000
0.200000 0.000000 0.000000
0.300000 0.000000 0.000000
0.400000 0.000000 0.000000
0.500000 0.000000 0.000000
0.600000 0.000000 0.000000
0.700000 0.000000 0.000000
0.800000 0.000000 0.000000
0.900000 0.000000 0.000000
1.000000 0.000000 0.000000
1.100000 0.000000 0.000000
1.200000 0.000000 0.000000
1.300000 0.000000 0.000000
1.400000 0.000000 0.000000
1.500000 0.000000 0.000000
1.600000 0.000000 0.000000
1.700000 0.000000 0.000000
1.800000 0.000000 0.000000
1.900000 0.000000 0.000000
2.000000 0.000000 0.000000
2.100000 0.000000 0.000000
2.200000 0.000000 0.000000
2.300000 0.000000 0.000000
2.400000 0.000000 0.000000
2.500000 0.000000 0.000000
2.600000 0.000000 0.000000
2.700000 0.000000 0.000000
2.800000 0.000000 0.000000
2.900000 0.000000 0.000000
3.000000 0.000000 0.000000
3.100000 0.000000 0.000000
3.200000 0.000000 0.000000
3.300000 0.000000 0.000000
3.400000 0.000000 0.000000
3.500000 0.000000 0.000000
3.600000 0.000000 0.000000
3.700000 0.000000 0.000000
3.800000 0.000000 0.000000
3.900000 0.000000 0.000000
4.000000 0.000000 0.000000
0.000000 0.100000 0.000000
0.100000 0.100000 0.000000
0.200000 0.100000 0.000000
0.300000 0.100000 0.000000
0.400000 0.100000 0.000000
0.500000 0.100000 0.000000
0.600000 0.100000 0.000000
0.700000 0.100000 0.000000
0.800000 0.100000 0.000000
0.900000 0.100000 0.000000
1.000000 0.100000 0.000000
1.100000 0.100000 0.000000
1.200000 0.100000 0.000000
1.300000 0.100000 0.000000
1.400000 0.100000 0.000000
1.500000 0.100000 0.000000
1.600000 0.100000 0.000000
1.700000 0.100000 0.000000
1.800000 0.100000 0.000000
1.900000 0.100000 0.000000
2.000000 0.100000 0.000000
2.100000 0.100000 0.000000
2.200000 0.100000 0.000000
2.300000 0.100000 0.000000
2.400000 0.100000 0.000000
2.500000 0.100000 0.000000
2.600000 0.100000 0.000000
2.700000 0.100000 0.000000
2.800000 0.100000 0.000000
2.900000 0.100000 0.000000
3.000000 0.100000 0.000000
3.100000 0.100000 0.000000
3.200000 0.100000 0.000000
3.300000 0.100000 0.000000
3.400000 0.100000 0.000000
3.500000 0.100000 0.000000
3.600000 0.100000 0.000000
3.700000 0.100000 0.000000
3.800000 0.100000 0.000000
3.900000 0.100000 0.000000
4.000000 0.100000 0.000000
0.000000 0.200000 0.000000
0.100000 0.200000 0.000000
0.200000 0.200000 0.000000
0.300000 0.200000 0.000000
0.400000 0.200000 0.000000
0.500000 0.200000 0.000000
0.600000 0.200000 0.000000
0.700000 0.200000 0.000000
0.800000 0.200000 0.000000
0.900000 0.200000 0.000000
1.000000 0.200000 0.000000
1.100000 0.200000 0.000000
1.200000 0.200000 0.000000
1.300000 0.200000 0.000000
1.400000 0.200000 0.000000
1.500000 0.200000 0.000000
1.600000 0.200000 0.000000
1.700000 0.200000 0.000000
1.800000 0.200000 0.000000
1.900000 0.200000 0.000000
2.000000 0.200000 0.000000
2.100000 0.200000 0.000000
2.200000 0.200000 0.000000
2.300000 0.200000 0.000000
2.400000 0.200000 0.000000
2.500000 0.200000 0.000000
2.600000 0.200000 0.000000
2.700000 0.200000 0.000000
2.800000 0.200000 0.000000
2.900000 0.200000 0.000000
3.000000 0.200000 0.000000
3.100000 0.200000 0.000000
3.200000 0.200000 0.000000
3.300000 0.200000 0.000000
3.400000 0.200000 0.000000
3.500000 0.200000 0.000000
3.600000 0.200000 0.000000
3.700000 0.200000 0.000000
3.800000 0.200000 0.000000
3.900000 0.200000 0.000000
4.000000 0.200000 0.000000
0.000000 0.300000 0.000000
0.100000 0.300000 0.000000
0.200000 0.300000 0.000000
0.300000 0.300000 0.000000
0.400000 0.300000 0.000000
0.500000 0.300000 0.000000
0.600000 0.300000 0.000000
0.700000 0.300000 0.000000
0.800000 0.300000 0.000000
0.900000 0.300000 0.000000
1.000000 0.300000 0.000000
1.100000 0.300000 0.000000
1.200000 0.300000 0.000000
1.300000 0.300000 0.000000
1.400000 0.300000 0.000000
1.500000 0.300000 0.000000
1.600000 0.300000 0.000000
1.700000 0.300000 0.000000
1.800000 0.300000 0.000000
1.900000 0.300000 0.000000
2.000000 0.300000 0.000000
2.100000 0.300000 0.000000
2.200000 0.300000 0.000000
2.300000 0.300000 0.000000
2.400000 0.300000 0.000000
2.500000 0.300000 0.000000
2.600000 0.300000 0.000000
2.700000 0.300000 0.000000
2.800000 0.300000 0.000000
2.900000 0.300000 0.000000
3.000000 0.300000 0.000000
3.100000 0.300000 0.000000
3.200000 0.300000 0.000000
3.300000 0.300000 0.000000
3.400000 0.300000 0.000000
3.500000 0.300000 0.000000
3.600000 0.300000 0.000000
3.700000 0.300000 0.000000
3.800000 0.300000 0.000000
3.900000 0.300000 0.000000
4.000000 0.300000 0.000000
0.000000 0.400000 0.000000
0.100000 0.400000 0.000000
0.200000 0.400000 0.000000
0.300000 0.400000 0.000000
0.400000 0.400000 0.000000
0.500000 0.400000 0.000000
0.600000 0.400000 0.000000
0.700000 0.400000 0.000000
0.800000 0.400000 0.000000
0.900000 0.400000 0.000000
1.000000 0.400000 0.000000
1.100000 0.400000 0.000000
1.200000 0.400000 0.000000
1.300000 0.400000 0.000000
1.400000 0.400000 0.000000
1.500000 0.400000 0.000000
1.600000 0.400000 0.000000
1.700000 0.400000 0.000000
1.800000 0.400000 0.000000
1.900000 0.400000 0.000000
2.000000 0.400000 0.000000
2.100000 0.400000 0.000000
2.200000 0.400000 0.000000
2.300000 0.400000 0.000000
2.400000 0.400000 0.000000
2.500000 0.400000 0.000000
2.600000 0.400000 0.000000
2.700000 0.400000 0.000000
2.800000 0.400000 0.000000
2.900000 0.400000 0.000000
3.000000 0.400000 0.000000
3.100000 0.400000 0.000000
3.200000 0.400000 0.000000
3.300000 0.400000 0.000000
3.400000 0.400000 0.000000
3.500000 0.400000 0.000000
3.600000 0.400000 0.000000
3.700000 0.400000 0.000000
3.800000 0.400000 0.000000
3.900000 0.400000 0.000000
4.000000 0.400000 0.000000
0.000000 0.500000 0.000000
0.100000 0.500000 0.000000
0.200000 0.500000 0.000000
0.300000 0.500000 0.000000
0.400000 0.500000 0.000000
0.500000 0.500000 0.000000
0.600000 0.500000 0.000000
0.700000 0.500000 0.000000
0.800000 0.500000 0.000000
0.900000 0.500000 0.000000
1.000000 0.500000 0.000000
1.100000 0.500000 0.000000
1.200000 0.500000 0.000000
1.300000 0.500000 0.000000
1.400000 0.500000 0.000000
1.500000 0.500000 0.000000
1.600000 0.500000 0.000000
1.700000 0.500000 0.000000
1.800000 0.500000 0.000000
1.900000 0.500000 0.000000
2.000000 0.500000 0.000000
2.100000 0.500000 0.000000
2.200000 0.500000 0.000000
2.300000 0.500000 0.000000
2.400000 0.500000 0.000000
2.500000 0.500000 0.000000
2.600000 0.500000 0.000000
2.700000 0.500000 0.000000
2.800000 0.500000 0.000000
2.900000 0.500000 0.000000
3.000000 0.500000 0.000000
3.100000 0.500000 0.000000
3.200000 0.500000 0.000000
3.300000 0.500000 0.000000
3.400000 0.500000 0.000000
3.500000 0.500000 0.000000
3.600000 0.500000 0.000000
3.700000 0.500000 0.000000
3.800000 0.500000 0.000000
3.900000 0.500000 0.000000
4.000000 0.500000 0.000000
0.000000 0.600000 0.000000
0.100000 0.600000 0.000000
0.200000 0.600000 0.000000
0.300000 0.600000 0.000000
0.400000 0.600000 0.000000
0.500000 0.600000 0.000000
0.600000 0.600000 0.000000
0.700000 0.600000 0.000000
0.800000 0.600000 0.000000
0.900000 0.600000 0.000000
1.000000 0.600000 0.000000
1.100000 0.600000 0.000000
1.200000 0.600000 0.000000
1.300000 0.600000 0.000000
1.400000 0.600000 0.000000
1.500000 0.600000 0.000000
1.600000 0.600000 0.000000
1.700000 0.600000 0.000000
1.800000 0.600000 0.000000
1.900000 0.600000 0.000000
2.000000 0.600000 0.000000
2.100000 0.600000 0.000000
2.200000 0.600000 0.000000
2.300000 0.600000 0.000000
2.400000 0.600000 0.000000
2.500000 0.600000 0.000000
2.600000 0.600000 0.000000
2.700000 0.600000 0.000000
2.800000 0.600000 0.000000
2.900000 0.600000 0.000000
3.000000 0.600000 0.000000
3.100000 0.600000 0.000000
3.200000 0.600000 0.000000
3.300000 0.600000 0.000000
3.400000 0.600000 0.000000
3.500000 0.600000 0.000000
3.600000 0.600000 0.000000
3.700000 0.600000 0.000000
3.800000 0.600000 0.000000
3.900000 0.600000 0.000000
4.000000 0.600000 0.000000
0.000000 0.700000 0.000000
0.100000 0.700000 0.000000
0.200000 0.700000 0.000000
0.300000 0.700000 0.000000
0.400000 0.700000 0.000000
0.500000 0.700000 0.000000
0.600000 0.700000 0.000000
0.700000 0.700000 0.000000
0.800000 0.700000 0.000000
0.900000 0.700000 0.000000
1.000000 0.700000 0.000000
1.100000 0.700000 0.000000
1.200000 0.700000 0.000000
1.300000 0.700000 0.000000
1.400000 0.700000 0.000000
1.500000 0.700000 0.000000
1.600000 0.700000 0.000000
1.700000 0.700000 0.000000
1.800000 0.700000 0.000000
1.900000 0.700000 0.000000
2.000000 0.700000 0.000000
2.100000 0.700000 0.000000
2.200000 0.700000 0.000000
2.300000 0.700000 0.000000
2.400000 0.700000 0.000000
2.500000 0.700000 0.000000
2.600000 0.700000 0.000000
2.700000 0.700000 0.000000
2.800000 0.700000 0.000000
2.900000 0.700000 0.000000
3.000000 0.700000 0.000000
3.100000 0.700000 0.000000
3.200000 0.700000 0.000000
3.300000 0.700000 0.000000
3.400000 0.700000 0.000000
3.500000 0.700000 0.000000
3.600000 0.700000 0.000000
3.700000 0.700000 0.000000
3.800000 0.700000 0.000000
3.900000 0.700000 0.000000
4.000000 0.700000 0.000000
0.000000 0.800000 0.000000
0.100000 0.800000 0.000000
0.200000 0.800000 0.000000
0.300000 0.800000 0.000000
0.400000 0.800000 0.000000
0.500000 0.800000 0.000000
0.600000 0.800000 0.000000
0.700000 0.800000 0.000000
0.800000 0.800000 0.000000
0.900000 0.800000 0.000000
1.000000 0.800000 0.000000
1.100000 0.800000 0.000000
1.200000 0.800000 0.000000
1.300000 0.800000 0.000000
1.400000 0.800000 0.000000
1.500000 0.800000 0.000000
1.600000 0.800000 0.000000
1.700000 0.800000 0.000000
1.800000 0.800000 0.000000
1.900000 0.800000 0.000000
2.000000 0.800000 0.000000
2.100000 0.800000 0.000000
2.200000 0.800000 0.000000
2.300000 0.800000 0.000000
2.400000 0.800000 0.000000
2.500000 0.800000 0.000000
2.600000 0.800000 0.000000
2.700000 0.800000 0.000000
2.800000 0.800000 0.000000
2.900000 0.800000 0.000000
3.000000 0.800000 0.000000
3.100000 0.800000 0.000000
3.200000 0.800000 0.000000
3.300000 0.800000 0.000000
3.400000 0.800000 0.000000
3.500000 0.800000 0.000000
3.600000 0.800000 0.000000
[...]
CELL_DATA 16000
SCALARS pressure float 1
LOOKUP_TABLE default
34.7865
31.6633
29.3256
27.5814
26.2164
25.0877
24.1085
23.2259
22.4064
21.6283
20.8769
20.1422
19.4175
18.6982
17.982
17.2679
16.5556
15.8455
15.1378
14.4325
13.729
13.0269
12.3255
11.6242
10.9227
10.2206
9.51789
8.81461
8.11079
7.4065
6.70184
5.99689
5.29172
4.58639
3.88095
3.17542
2.46984
1.76421
1.05856
0.352871
37.1376
32.0231
29.2087
27.4
26.0665
24.9804
24.0359
23.1781
22.3756
21.6088
20.865
20.1352
19.4136
18.6963
17.9812
17.2676
16.5556
15.8457
15.138
14.4327
13.7293
13.0272
12.3258
11.6244
10.9228
10.2207
9.518
8.81469
8.11084
7.40653
6.70186
5.9969
5.29173
4.58639
3.88095
3.17542
2.46983
1.76421
1.05856
0.352874
40.4962
33.0006
29.367
27.3102
25.9252
24.8497
23.931
23.0989
22.318
21.5682
20.837
20.1165
19.4014
18.6884
17.976
17.264
16.553
15.8436
15.1364
14.4316
13.7286
13.027
12.3258
11.6247
10.9232
10.2211
9.51834
8.81498
8.11107
7.40672
6.702
5.997
5.2918
4.58644
3.88098
3.17544
2.46985
1.76422
1.05856
0.352882
43.9968
34.2456
29.7264
27.3404
25.8464
24.7466
23.8344
23.0185
22.255
21.5208
20.8028
20.0926
19.3851
18.6772
17.9681
17.258
16.5479
15.8393
15.133
14.429
13.727
13.0262
12.3257
11.6249
10.9236
10.2216
9.51886
8.81544
8.11146
7.40702
6.70223
5.99717
5.29192
4.58653
3.88104
3.17548
2.46987
1.76424
1.05858
0.35289
47.2684
35.5291
30.179
27.4528
25.8257
24.6803
23.7594
22.9495
22.1973
21.4754
20.7687
20.0681
19.3679
18.6651
17.959
17.2505
16.5413
15.8334
15.128
14.4253
13.7247
13.025
12.3253
11.6252
10.9242
10.2223
9.51953
8.81604
8.11196
7.40742
6.70253
5.9974
5.29209
4.58665
3.88112
3.17553
2.46991
1.76426
1.05859
0.352897
50.1329
36.717
30.6427
27.6038
25.8435
24.6446
23.7062
22.8953
22.1492
21.4361
20.7385
20.0461
19.3523
18.6538
17.9501
17.2426
16.534
15.8266
15.1222
14.4209
13.7218
13.0235
12.325
11.6255
10.9248
10.2231
9.5203
8.81672
8.11253
7.40787
6.70288
5.99766
5.29227
4.58678
3.88121
3.1756
2.46995
1.76429
1.05861
0.352902
52.496
37.7306
31.0622
27.7587
25.8799
24.6295
23.6711
22.8554
22.1118
21.4045
20.7138
20.028
19.3395
18.6443
17.9422
17.2353
16.5267
15.8196
15.1161
14.4164
13.7189
13.0221
12.3246
11.6258
10.9255
10.2239
9.52109
8.81742
8.11311
7.40833
6.70323
5.99792
5.29246
4.58691
3.8813
3.17566
2.46999
1.76431
1.05862
0.352906
54.3034
38.5224
31.4018
27.893
25.9196
24.6259
23.6492
22.8277
22.0847
21.381
20.6953
20.0144
19.3298
18.6369
17.9358
17.2291
16.5204
15.8134
15.1107
14.4123
13.7164
13.0209
12.3243
11.6261
10.9262
10.2246
9.52181
8.81806
8.11363
7.40874
6.70355
5.99815
5.29263
4.58703
3.88139
3.17572
2.47003
1.76434
1.05863
0.352908
55.5232
39.0638
31.6391
27.9906
25.9517
24.6272
23.6369
22.8105
22.0671
21.3655
20.6829
20.0052
19.3232
18.6319
17.9315
17.2247
16.5158
15.8088
15.1067
14.4093
13.7145
13.02
12.3242
11.6264
10.9267
10.2252
9.52237
8.81854
8.11403
7.40906
6.70379
5.99833
5.29276
4.58712
3.88145
3.17576
2.47006
1.76435
1.05864
0.35291
56.1371
39.3383
31.7607
28.0416
25.9693
24.6289
23.6314
22.8022
22.0585
21.3578
20.6767
20.0007
19.32
18.6294
17.9292
17.2224
16.5134
15.8064
15.1046
14.4078
13.7136
13.0196
12.3241
11.6266
10.927
10.2255
9.52267
8.8188
8.11424
7.40922
6.70391
5.99842
5.29283
4.58717
3.88148
3.17578
2.47007
1.76436
1.05865
0.352911
56.1371
39.3383
31.7607
28.0416
25.9693
24.6289
23.6313
22.8022
22.0585
21.3578
20.6767
20.0007
19.32
18.6294
17.9292
17.2224
16.5134
15.8064
15.1046
14.4078
13.7136
13.0196
12.3241
11.6266
10.927
10.2255
9.52267
8.8188
8.11424
7.40923
6.70391
5.99842
5.29283
4.58717
3.88148
3.17578
2.47007
1.76436
1.05865
0.352911
55.5232
39.0638
31.639
27.9905
25.9516
24.6272
23.6369
22.8105
22.0671
21.3655
20.6829
20.0052
19.3232
18.6319
17.9314
17.2247
16.5158
15.8088
15.1067
14.4093
13.7145
13.02
12.3242
11.6264
10.9267
10.2252
9.52237
8.81855
8.11403
7.40906
6.70379
5.99833
5.29276
4.58712
3.88145
3.17576
2.47006
1.76435
1.05864
0.35291
54.3034
38.5224
31.4018
27.893
25.9196
24.6259
23.6492
22.8277
22.0846
21.3809
20.6952
20.0143
19.3297
18.6369
17.9358
17.2291
16.5204
15.8134
15.1107
14.4123
13.7164
13.0209
12.3244
11.6262
10.9262
10.2246
9.52182
8.81807
8.11364
7.40875
6.70355
5.99816
5.29263
4.58703
3.88139
3.17572
2.47003
1.76434
1.05863
0.352908
52.496
37.7305
31.0622
27.7587
25.8799
24.6294
23.671
22.8553
22.1117
21.4044
20.7138
20.0279
19.3394
18.6442
17.9421
17.2352
16.5267
15.8195
15.1161
14.4163
13.7189
13.0221
12.3246
11.6258
10.9255
10.2239
9.5211
8.81743
8.11312
7.40834
6.70324
5.99792
5.29247
4.58691
3.88131
3.17566
2.46999
1.76431
1.05862
0.352906
50.1329
36.7169
30.6427
27.6038
25.8434
24.6445
23.7062
22.8953
22.1491
21.436
20.7384
20.046
19.3523
18.6537
17.95
17.2426
16.5339
15.8265
15.1221
14.4209
13.7218
13.0235
12.325
11.6255
10.9249
10.2231
9.52031
8.81673
8.11254
7.40788
6.70289
5.99766
5.29228
4.58678
3.88121
3.1756
2.46995
1.76429
1.05861
0.352902
47.2683
35.529
30.179
27.4528
25.8256
24.6803
23.7593
22.9494
22.1972
21.4753
20.7686
20.0681
19.3679
18.6651
17.9589
17.2504
16.5413
15.8334
15.128
14.4253
13.7247
13.025
12.3254
11.6252
10.9242
10.2223
9.51954
8.81605
8.11197
7.40743
6.70254
5.99741
5.29209
4.58665
3.88112
3.17553
2.46991
1.76426
1.05859
0.352896
43.9968
34.2455
29.7263
27.3403
25.8463
24.7465
23.8343
23.0184
22.2549
21.5207
20.8027
20.0925
19.385
18.6772
17.968
17.2579
16.5479
15.8393
15.1329
14.429
13.727
13.0262
12.3257
11.625
10.9237
10.2216
9.51887
8.81545
8.11147
7.40703
6.70224
5.99718
5.29193
4.58653
3.88104
3.17548
2.46987
1.76424
1.05858
0.352889
40.496
33.0005
29.3669
27.3101
25.9251
24.8496
23.9309
23.0989
22.3179
21.5681
20.8369
20.1165
19.4013
18.6883
17.976
17.264
16.5529
15.8435
15.1364
14.4315
13.7286
13.027
12.3258
11.6247
10.9232
10.2211
9.51835
8.81499
8.11108
7.40673
6.70201
5.99701
5.2918
4.58644
3.88098
3.17544
2.46985
1.76422
1.05856
0.352882
37.1373
32.0229
29.2086
27.3999
26.0663
24.9803
24.0358
23.178
22.3755
21.6088
20.8649
20.1352
19.4135
18.6962
17.9811
17.2676
16.5556
15.8456
15.138
14.4327
13.7293
13.0272
12.3258
11.6245
10.9228
10.2207
9.51801
8.8147
8.11085
7.40654
6.70187
5.99691
5.29173
4.5864
3.88095
3.17542
2.46983
1.76421
1.05856
0.352874
34.7861
31.663
29.3254
27.5813
26.2162
25.0876
24.1084
23.2258
22.4063
21.6282
20.8768
20.1422
19.4174
18.6981
17.982
17.2678
16.5556
15.8455
15.1378
14.4325
13.729
13.0269
12.3255
11.6242
10.9227
10.2206
9.51791
8.81462
8.1108
7.40651
6.70185
5.9969
5.29173
4.58639
3.88095
3.17542
2.46983
1.76421
1.05856
0.35287
32.419
30.9842
29.244
27.6659
26.3228
25.1767
24.1744
23.2721
22.4379
21.6493
20.8907
20.1511
19.423
18.7016
17.984
17.2689
16.556
15.8456
15.1377
14.4323
13.7289
13.0268
12.3255
11.6242
10.9226
10.2206
9.51789
8.81461
8.11079
7.4065
6.70184
5.99689
5.29172
4.58639
3.88094
3.17541
2.46983
1.76421
1.05856
0.352874
33.1203
31.1772
29.2199
27.5909
26.2546
25.1276
24.1427
23.253
22.4271
21.6437
20.8881
20.1502
19.4231
18.7022
17.985
17.2701
16.5575
15.8471
15.1392
14.4336
13.7299
13.0276
12.3259
11.6244
10.9227
10.2205
9.5178
8.81449
8.11066
7.40638
6.70173
5.9968
5.29164
4.58633
3.8809
3.17538
2.4698
1.76419
1.05854
0.352869
34.5201
31.8515
29.4514
27.6246
26.2166
25.0726
24.0911
23.2109
22.395
21.6203
20.8716
20.139
19.4156
18.6974
17.9818
17.2681
16.5561
15.8462
15.1386
14.4333
13.7299
13.0277
12.3262
11.6247
10.923
10.2208
9.51798
8.81462
8.11075
7.40644
6.70177
5.99682
5.29165
4.58633
3.88089
3.17538
2.4698
1.76418
1.05854
0.352872
36.1701
32.76
29.8482
27.7559
26.2282
25.0376
24.0434
23.1649
22.356
21.5894
20.8484
20.1222
19.4039
18.6892
17.976
17.2636
16.5525
15.8433
15.1363
14.4317
13.7289
13.0273
12.3262
11.625
10.9234
10.2212
9.51836
8.81495
8.11101
7.40664
6.70192
5.99692
5.29173
4.58638
3.88093
3.1754
2.46981
1.76419
1.05854
0.352875
37.8114
33.7284
30.3198
27.9487
26.2818
25.0281
24.0094
23.1251
22.3187
21.5581
20.8239
20.104
19.3907
18.6796
17.9687
17.2577
16.5474
15.8388
15.1327
14.429
13.7273
13.0265
12.326
11.6252
10.9238
10.2217
9.51889
8.81541
8.1114
7.40694
6.70215
5.9971
5.29185
4.58647
3.88099
3.17544
2.46984
1.76421
1.05855
0.352878
39.3005
34.6442
30.7945
28.1643
26.3601
25.0387
23.9897
23.0946
22.2873
21.5302
20.8013
20.0868
19.3781
18.6702
17.9612
17.2513
16.5415
15.8335
15.1282
14.4258
13.7252
13.0255
12.3258
11.6255
10.9244
10.2223
9.51951
8.81597
8.11186
7.40731
6.70243
5.99731
5.292
4.58657
3.88106
3.17548
2.46987
1.76423
1.05856
0.352879
40.5556
35.4366
31.2218
28.3707
26.4448
25.0604
23.9811
23.0735
22.263
21.5076
20.7825
20.0723
19.3674
18.662
17.9544
17.2451
16.5357
15.828
15.1236
14.4224
13.7231
13.0245
12.3256
11.6258
10.9249
10.223
9.52016
8.81655
8.11234
7.4077
6.70273
5.99752
5.29216
4.58669
3.88114
3.17554
2.4699
1.76425
1.05857
0.35288
41.5286
36.0612
31.5672
28.5439
26.5211
25.0847
23.9792
23.0598
22.2456
21.4907
20.7681
20.0612
19.359
18.6554
17.9488
17.2399
16.5306
15.8231
15.1195
14.4193
13.7212
13.0236
12.3254
11.6261
10.9255
10.2236
9.52075
8.81707
8.11278
7.40804
6.70299
5.99772
5.2923
4.58679
3.88121
3.17558
2.46993
1.76426
1.05858
0.35288
42.1906
36.4907
31.8083
28.6678
26.5777
25.1047
23.9803
23.052
22.2345
21.4795
20.7584
20.0536
19.3533
18.6509
17.9448
17.2361
16.5268
15.8196
15.1164
14.4171
13.7199
13.023
12.3253
11.6263
10.9259
10.2241
9.52121
8.81747
8.11311
7.4083
6.70319
5.99787
5.29241
4.58687
3.88126
3.17562
2.46996
1.76428
1.05858
0.352879
42.5252
36.709
31.932
28.732
26.6078
25.1158
23.9815
23.0484
22.2292
21.474
20.7536
20.0498
19.3504
18.6486
17.9428
17.2341
16.5249
15.8177
15.1148
14.4159
13.7192
13.0227
12.3253
11.6265
10.9261
10.2244
9.52146
8.81769
8.11329
7.40845
6.7033
5.99795
5.29247
4.58691
3.88129
3.17564
2.46997
1.76428
1.05859
0.352879
42.5252
36.709
31.932
28.732
26.6078
25.1158
23.9815
23.0484
22.2292
21.474
20.7536
20.0498
19.3504
18.6486
17.9428
17.2341
16.5248
15.8177
15.1148
14.4159
13.7192
13.0227
12.3253
11.6265
10.9261
10.2244
9.52146
8.81769
8.11329
7.40845
6.7033
5.99795
5.29247
4.58691
3.88129
3.17564
2.46997
1.76428
1.05859
0.352879
42.1906
36.4907
31.8083
28.6677
26.5777
25.1047
23.9802
23.052
22.2345
21.4795
20.7584
20.0536
19.3533
18.6509
17.9448
17.2361
16.5268
15.8196
15.1164
14.4171
13.7199
13.023
12.3254
11.6263
10.9259
10.2241
9.52121
8.81748
8.11311
7.40831
6.70319
5.99787
5.29241
4.58687
3.88126
3.17562
2.46996
1.76428
1.05858
0.352879
41.5286
36.0612
31.5672
28.5439
26.521
25.0847
23.9792
23.0598
22.2456
21.4906
20.768
20.0611
19.359
18.6554
17.9487
17.2398
16.5305
15.8231
15.1195
14.4193
13.7212
13.0236
12.3254
11.6261
10.9255
10.2236
9.52076
8.81708
8.11278
7.40805
6.70299
5.99772
5.29231
4.58679
3.88121
3.17558
2.46993
1.76426
1.05858
0.35288
40.5556
35.4366
31.2218
28.3706
26.4448
25.0604
23.9811
23.0734
22.2629
21.5075
20.7824
20.0723
19.3673
18.6619
17.9543
17.2451
16.5356
15.828
15.1236
14.4224
13.7231
13.0245
12.3256
11.6258
10.9249
10.223
9.52017
8.81656
8.11235
7.4077
6.70273
5.99753
5.29216
4.58669
3.88114
3.17554
2.4699
1.76425
1.05857
0.35288
39.3005
34.6441
30.7945
28.1643
26.36
25.0386
23.9897
23.0946
22.2873
21.5302
20.8012
20.0868
19.3781
18.6701
17.9611
17.2512
16.5415
15.8335
15.1282
14.4258
13.7252
13.0255
12.3258
11.6255
10.9244
10.2224
9.51952
8.81598
8.11187
7.40732
6.70244
5.99731
5.29201
4.58658
3.88106
3.17549
2.46987
1.76423
1.05856
0.352879
37.8114
33.7283
30.3197
27.9486
26.2817
25.0281
24.0093
23.125
22.3187
21.558
20.8238
20.1039
19.3906
18.6795
17.9686
17.2577
16.5474
15.8388
15.1327
14.429
13.7273
13.0265
12.326
11.6252
10.9238
10.2217
9.5189
8.81543
8.11141
7.40695
6.70216
5.9971
5.29185
4.58647
3.88099
3.17544
2.46984
1.76421
1.05855
0.352878
36.1701
32.7599
29.8482
27.7558
26.2281
25.0375
24.0433
23.1648
22.3559
21.5893
20.8483
20.1221
19.4038
18.6891
17.9759
17.2636
16.5525
15.8432
15.1363
14.4317
13.7289
13.0273
12.3262
11.625
10.9234
10.2212
9.51837
8.81496
8.11102
7.40665
6.70192
5.99693
5.29173
4.58638
3.88093
3.1754
2.46981
1.76419
1.05854
0.352875
34.5199
31.8513
29.4512
27.6244
26.2165
25.0725
24.091
23.2108
22.3949
21.6202
20.8715
20.1389
19.4156
18.6973
17.9818
17.268
16.5561
15.8462
15.1386
14.4333
13.7299
13.0277
12.3262
11.6247
10.923
10.2208
9.51799
8.81463
8.11076
7.40644
6.70177
5.99682
5.29166
4.58633
3.8809
3.17538
2.4698
1.76418
1.05854
0.352872
33.12
31.177
29.2197
27.5907
26.2544
25.1275
24.1426
23.2529
22.427
21.6436
20.888
20.1502
19.4231
18.7022
17.9849
17.2701
16.5574
15.8471
15.1391
14.4336
13.7299
13.0276
12.3259
11.6245
10.9227
10.2206
9.51782
8.8145
8.11067
7.40638
6.70174
5.9968
5.29165
4.58633
3.8809
3.17538
2.4698
1.76419
1.05854
0.352869
32.4185
30.9839
29.2438
27.6657
26.3227
25.1766
24.1744
23.272
22.4378
21.6492
20.8906
20.151
19.423
18.7015
17.9839
17.2688
16.556
15.8455
15.1377
14.4323
13.7289
13.0268
12.3255
11.6242
10.9227
10.2206
9.51791
8.81462
8.11079
7.4065
6.70184
5.99689
5.29172
4.58639
3.88094
3.17541
2.46983
1.76421
1.05855
0.352873
30.4957
29.8324
28.6904
27.443
26.2568
25.1767
24.1978
23.3004
22.4639
21.6709
20.9078
20.1643
19.4329
18.7087
17.9887
17.2716
16.5573
15.8458
15.1374
14.4319
13.7285
13.0267
12.3255
11.6244
10.9229
10.2208
9.51813
8.81482
8.11096
7.40663
6.70194
5.99696
5.29177
4.58642
3.88096
3.17543
2.46984
1.76422
1.05856
0.352881
30.6275
29.8609
28.6453
27.3805
26.2037
25.1397
24.1751
23.2881
22.4583
21.6691
20.9079
20.1652
19.4342
18.7102
17.9905
17.2738
16.5598
15.8485
15.14
14.4341
13.7303
13.0279
12.3262
11.6247
10.9229
10.2207
9.51791
8.81456
8.1107
7.4064
6.70174
5.99679
5.29164
4.58632
3.88089
3.17537
2.4698
1.76418
1.05854
0.352871
31.1453
30.1993
28.8006
27.4259
26.1979
25.1155
24.1479
23.2641
22.4392
21.6547
20.8976
20.1581
19.4295
18.7072
17.9887
17.2729
16.5594
15.8485
15.1403
14.4346
13.7309
13.0284
12.3267
11.6251
10.9232
10.2209
9.51799
8.81459
8.11069
7.40637
6.7017
5.99675
5.2916
4.58628
3.88085
3.17534
2.46977
1.76416
1.05853
0.352871
31.8779
30.7186
29.0871
27.5539
26.2372
25.1118
24.1269
23.2385
22.4151
21.6345
20.8818
20.1464
19.4212
18.7013
17.9845
17.2696
16.5568
15.8464
15.1388
14.4336
13.7305
13.0285
12.327
11.6254
10.9236
10.2212
9.5183
8.81483
8.11087
7.40649
6.70178
5.99681
5.29163
4.5863
3.88086
3.17535
2.46977
1.76416
1.05852
0.352871
32.676
31.3094
29.4388
27.7318
26.3101
25.1283
24.1162
23.2172
22.3917
21.6133
20.8644
20.1332
19.4116
18.6942
17.9788
17.2649
16.5526
15.8426
15.1358
14.4316
13.7294
13.0282
12.3271
11.6259
10.9241
10.2218
9.51879
8.81524
8.11119
7.40674
6.70196
5.99693
5.29172
4.58636
3.8809
3.17537
2.46979
1.76417
1.05853
0.35287
33.4393
31.8909
29.8011
27.9279
26.4009
25.1588
24.1154
23.2021
22.3719
21.594
20.848
20.1206
19.4023
18.687
17.9728
17.2594
16.5474
15.8378
15.1318
14.429
13.728
13.0277
12.3273
11.6264
10.9248
10.2224
9.5194
8.81575
8.1116
7.40706
6.7022
5.99711
5.29184
4.58644
3.88096
3.17541
2.46981
1.76418
1.05853
0.352869
34.104
32.4073
30.1324
28.115
26.4935
25.1953
24.1212
23.1929
22.3568
21.578
20.8341
20.1099
19.3945
18.6807
17.9672
17.2541
16.542
15.8326
15.1276
14.4262
13.7266
13.0272
12.3275
11.6269
10.9255
10.2231
9.52004
8.8163
8.11204
7.4074
6.70246
5.9973
5.29197
4.58654
3.88102
3.17545
2.46983
1.76419
1.05854
0.352866
34.63
32.8214
30.4033
28.2722
26.5746
25.2301
24.1298
23.188
22.3461
21.566
20.8234
20.1016
19.3884
18.6756
17.9625
17.2495
16.5373
15.8278
15.1239
14.4238
13.7254
13.0269
12.3277
11.6275
10.9261
10.2238
9.52063
8.8168
8.11245
7.40771
6.70269
5.99747
5.2921
4.58662
3.88108
3.17549
2.46986
1.76421
1.05854
0.352863
34.9924
33.1091
30.594
28.3848
26.6342
25.2569
24.1377
23.1859
22.3394
21.5581
20.8161
20.0958
19.3842
18.6719
17.959
17.2461
16.5338
15.8244
15.1211
14.4221
13.7245
13.0268
12.328
11.6279
10.9266
10.2243
9.52108
8.81718
8.11276
7.40795
6.70288
5.9976
5.29219
4.58669
3.88113
3.17552
2.46988
1.76422
1.05854
0.35286
35.1768
33.2562
30.6921
28.4433
26.6656
25.2714
24.1423
23.1851
22.3362
21.5541
20.8124
20.0929
19.3819
18.67
17.9572
17.2443
16.532
15.8226
15.1197
14.4212
13.7241
13.0267
12.3281
11.6282
10.9269
10.2246
9.52133
8.81739
8.11293
7.40808
6.70297
5.99767
5.29225
4.58673
3.88115
3.17553
2.46989
1.76422
1.05855
0.352859
35.1768
33.2562
30.6921
28.4433
26.6656
25.2714
24.1423
23.1851
22.3361
21.5541
20.8124
20.0929
19.3819
18.67
17.9572
17.2443
16.532
15.8226
15.1197
14.4212
13.7241
13.0267
12.3281
11.6282
10.9269
10.2246
9.52133
8.81739
8.11293
7.40808
6.70297
5.99768
5.29225
4.58673
3.88115
3.17553
2.46989
1.76422
1.05855
0.352859
34.9924
33.1091
30.594
28.3848
26.6342
25.2569
24.1377
23.1858
22.3393
21.558
20.816
20.0958
19.3841
18.6719
17.959
17.246
16.5338
15.8244
15.1211
14.4221
13.7245
13.0268
12.328
11.6279
10.9266
10.2243
9.52109
8.81718
8.11276
7.40796
6.70288
5.9976
5.2922
4.58669
3.88113
3.17552
2.46988
1.76422
1.05854
0.35286
34.63
32.8214
30.4033
28.2722
26.5746
25.2301
24.1298
23.188
22.346
21.566
20.8233
20.1015
19.3884
18.6756
17.9624
17.2494
16.5373
15.8278
15.1238
14.4238
13.7254
13.0269
12.3277
11.6275
10.9261
10.2238
9.52064
8.8168
8.11245
7.40772
6.7027
5.99747
5.2921
4.58663
3.88108
3.17549
2.46986
1.76421
1.05854
0.352863
34.104
32.4074
30.1324
28.115
26.4934
25.1953
24.1212
23.1929
22.3567
21.578
20.8341
20.1098
19.3944
18.6807
17.9672
17.254
16.542
15.8325
15.1276
14.4262
13.7266
13.0272
12.3275
11.6269
10.9255
10.2231
9.52005
8.8163
8.11205
7.4074
6.70246
5.9973
5.29198
4.58654
3.88102
3.17545
2.46983
1.76419
1.05854
0.352866
33.4393
31.8909
29.801
27.9279
26.4008
25.1587
24.1153
23.2021
22.3719
21.5939
20.848
20.1206
19.4022
18.687
17.9728
17.2594
16.5473
15.8378
15.1318
14.429
13.728
13.0277
12.3273
11.6264
10.9248
10.2224
9.51941
8.81576
8.11161
7.40706
6.70221
5.99711
5.29184
4.58645
3.88096
3.17541
2.46981
1.76418
1.05853
0.352868
32.676
31.3094
29.4388
27.7318
26.3101
25.1282
24.1161
23.2172
22.3916
21.6132
20.8643
20.1332
19.4115
18.6941
17.9788
17.2648
16.5525
15.8426
15.1357
14.4316
13.7294
13.0282
12.3271
11.6259
10.9241
10.2218
9.51881
8.81525
8.1112
7.40675
6.70197
5.99694
5.29172
4.58636
3.8809
3.17537
2.46979
1.76417
1.05853
0.35287
31.8778
30.7185
29.087
27.5538
26.2371
25.1117
24.1268
23.2385
22.415
21.6344
20.8817
20.1464
19.4211
18.7013
17.9844
17.2696
16.5568
15.8464
15.1387
14.4336
13.7305
13.0285
12.327
11.6255
10.9236
10.2212
9.51832
8.81484
8.11088
7.4065
6.70179
5.99681
5.29163
4.5863
3.88086
3.17535
2.46977
1.76416
1.05852
0.352871
31.1451
30.1991
28.8004
27.4258
26.1977
25.1153
24.1478
23.264
22.4391
21.6547
20.8975
20.158
19.4294
18.7071
17.9887
17.2728
16.5594
15.8485
15.1403
14.4346
13.7309
13.0285
12.3267
11.6251
10.9232
10.2209
9.518
8.8146
8.1107
7.40637
6.7017
5.99675
5.2916
4.58628
3.88086
3.17534
2.46977
1.76416
1.05853
0.35287
30.6272
29.8606
28.645
27.3803
26.2035
25.1396
24.175
23.288
22.4582
21.669
20.9078
20.1651
19.4341
18.7101
17.9904
17.2738
16.5597
15.8484
15.1399
14.4341
13.7303
13.0279
12.3262
11.6247
10.9229
10.2207
9.51793
8.81457
8.11071
7.4064
6.70174
5.9968
5.29164
4.58632
3.88089
3.17537
2.4698
1.76418
1.05854
0.352871
30.4953
29.8319
28.6901
27.4428
26.2566
25.1766
24.1977
23.3003
22.4638
21.6708
20.9077
20.1642
19.4328
18.7086
17.9886
17.2716
16.5572
15.8458
15.1374
14.4318
13.7285
13.0267
12.3255
11.6244
10.9229
10.2208
9.51815
8.81483
8.11096
7.40664
6.70194
5.99696
5.29177
4.58642
3.88096
3.17543
2.46984
1.76421
1.05856
0.35288
29.0728
28.7185
27.9717
27.0312
26.0416
25.0751
24.1575
23.2912
22.4692
21.6822
20.9207
20.1768
19.4439
18.7175
17.995
17.2755
16.5591
15.8461
15.1369
14.4312
13.7281
13.0266
12.3257
11.6248
10.9234
10.2214
9.51863
8.81524
8.11129
7.40689
6.70213
5.9971
5.29187
4.58649
3.88101
3.17546
2.46986
1.76423
1.05857
0.352888
29.0346
28.6824
27.915
26.9718
25.9925
25.0401
24.1353
23.2786
22.4631
21.6798
20.9202
20.177
19.4445
18.7186
17.9967
17.278
16.5622
15.8497
15.1404
14.4343
13.7305
13.0282
12.3266
11.6252
10.9234
10.2211
9.51829
8.81487
8.11094
7.40657
6.70186
5.99688
5.29169
4.58636
3.88091
3.17538
2.4698
1.76418
1.05854
0.352874
29.1818
28.8194
27.9916
26.9984
25.9904
25.0258
24.118
23.2626
22.4499
21.6696
20.9128
20.1719
19.4412
18.7165
17.9957
17.2777
16.5625
15.8503
15.1414
14.4354
13.7316
13.0292
12.3274
11.6257
10.9237
10.2213
9.51831
8.81482
8.11085
7.40647
6.70176
5.99679
5.29161
4.58629
3.88085
3.17534
2.46977
1.76416
1.05852
0.35287
29.4803