# vtk DataFile Version 2.0
I need something to put here
ASCII

DATASET STRUCTURED_GRID
DIMENSIONS 41 21 21
POINTS 18081 float
0.000000 0.000000 0.000000
0.100000 0.000000 0.000000
0.200000 0.000000 0.000000
0.300000 0.000000 0.000000
0.400000 0.000000 0.000000
0.500000 0.000000 0.000000
0.600000 0.000000 0.000000
0.700000 0.000000 0.000000
0.800000 0.000000 0.000000
0.900000 0.000000 0.000000
1.000000 0.000000 0.000000
1.100000 0.000000 0.000000
1.200000 0.000000 0.000000
1.300000 0.000000 0.000000
1.400000 0.000000 0.000000
1.500000 0.000000 0.000000
1.600000 0.000000 0.000000
1.700000 0.000000 0.000000
1.800000 0.000000 0.000000
1.900000 0.000000 0.000000
2.000000 0.000000 0.000000
2.100000 0.000000 0.000000
2.200000 0.000000 0.000000
2.300000 0.000000 0.000000
2.400000 0.000000 0.000000
2.500000 0.000000 0.000000
2.600000 0.000000 0.000000
2.700000 0.000000 0.000000
2.800000 0.000000 0.000000
2.900000 0.000000 0.000000
3.000000 0.000000 0.000000
3.100000 0.000000 0.000000
3.200000 0.000000 0.000000
3.300000 0.000000 0.000000
3.400000 0.000000 0.000000
3.500000 0.000000 0.000000
3.600000 0.000000 0.000000
3.700000 0.000000 0.000000
3.800000 0.000000 0.000000
3.900000 0.000000 0.000000
4.000000 0.000000 0.000000
0.000000 0.100000 0.000000
0.100000 0.100000 0.000000
0.200000 0.100000 0.000000
0.300000 0.100000 0.000000
0.400000 0.100000 0.000000
0.500000 0.100000 0.000000
0.600000 0.100000 0.000000
0.700000 0.100000 0.000000
0.800000 0.100000 0.000000
0.900000 0.100000 0.000000
1.000000 0.100000 0.000000
1.100000 0.100000 0.000000
1.200000 0.100000 0.000000
1.300000 0.100000 0.000000
1.400000 0.100000 0.000000
1.500000 0.100000 0.000000
1.600000 0.100000 0.000000
1.700000 0.100000 0.000000
1.800000 0.100000 0.000000
1.900000 0.100000 0.000000
2.000000 0.100000 0.000000
2.100000 0.100000 0.000000
2.200000 0.100000 0.000000
2.300000 0.100000 0.000000
2.400000 0.100000 0.000000
2.500000 0.100000 0.000000
2.600000 0.100000 0.000000
2.700000 0.100000 0.000000
2.800000 0.100000 0.000000
2.900000 0.100000 0.000000
3.000000 0.100000 0.000000
3.100000 0.100000 0.000000
3.200000 0.100000 0.000000
3.300000 0.100000 0.000000
3.400000 0.100000 0.000000
3.500000 0.100000 0.000000
3.600000 0.100000 0.000000
3.700000 0.100000 0.000000
3.800000 0.100000 0.000000
3.900000 0.100000 0.000000
4.000000 0.100000 0.000000
0.000000 0.200000 0.000000
0.100000 0.200000 0.000000
0.200000 0.200000 0.000000
0.300000 0.200000 0.000000
0.400000 0.200000 0.000000
0.500000 0.200000 0.000000
0.600000 0.200000 0.000000
0.700000 0.200000 0.000000
0.800000 0.200000 0.000000
0.900000 0.200000 0.000000
1.000000 0.200000 0.000000
1.100000 0.200000 0.000000
1.200000 0.200000 0.000000
1.300000 0.200000 0.000000
1.400000 0.200000 0.000000
1.500000 0.200000 0.000000
1.600000 0.200000 0.000000
1.700000 0.200000 0.000000
1.800000 0.200000 0.000000
1.900000 0.200000 0.000000
2.000000 0.200000 0.000000
2.100000 0.200000 0.000000
2.200000 0.200000 0.000000
2.300000 0.200000 0.000000
2.400000 0.200000 0.000000
2.500000 0.200000 0.000000
2.600000 0.200000 0.000000
2.700000 0.200000 0.000000
2.800000 0.200000 0.000000
2.900000 0.200000 0.000000
3.000000 0.200000 0.000000
3.100000 0.200000 0.000000
3.200000 0.200000 0.000000
3.300000 0.200000 0.000000
3.400000 0.200000 0.000000
3.500000 0.200000 0.000000
3.600000 0.200000 0.000000
3.700000 0.200000 0.000000
3.800000 0.200000 0.000000
3.900000 0.200000 0.000000
4.000000 0.200000 0.000000
0.000000 0.300000 0.000000
0.100000 0.300000 0.000000
0.200000 0.300000 0.000000
0.300000 0.300000 0.000000
0.400000 0.300000 0.000000
0.500000 0.300000 0.000000
0.600000 0.300000 0.000000
0.700000 0.300000 0.000000
0.800000 0.300000 0.000000
0.900000 0.300000 0.000000
1.000000 0.300000 0.000000
1.100000 0.300000 0.000000
1.200000 0.300000 0.000000
1.300000 0.300000 0.000000
1.400000 0.300000 0.000000
1.500000 0.300000 0.000000
1.600000 0.300000 0.000000
1.700000 0.300000 0.000000
1.800000 0.300000 0.000000
1.900000 0.300000 0.000000
2.000000 0.300000 0.000000
2.100000 0.300000 0.000000
2.200000 0.300000 0.000000
2.300000 0.300000 0.000000
2.400000 0.300000 0.000000
2.500000 0.300000 0.000000
2.600000 0.300000 0.000000
2.700000 0.300000 0.000000
2.800000 0.300000 0.000000
2.900000 0.300000 0.000000
3.000000 0.300000 0.000000
3.100000 0.300000 0.000000
3.200000 0.300000 0.000000
3.300000 0.300000 0.000000
3.400000 0.300000 0.000000
3.500000 0.300000 0.000000
3.600000 0.300000 0.000000
3.700000 0.300000 0.000000
3.800000 0.300000 0.000000
3.900000 0.300000 0.000000
4.000000 0.300000 0.000000
0.000000 0.400000 0.000000
0.100000 0.400000 0.000000
0.200000 0.400000 0.000000
0.300000 0.400000 0.000000
0.400000 0.400000 0.000000
0.500000 0.400000 0.000000
0.600000 0.400000 0.000000
0.700000 0.400000 0.000000
0.800000 0.400000 0.000000
0.900000 0.400000 0.000000
1.000000 0.400000 0.000000
1.100000 0.400000 0.000000
1.200000 0.400000 0.000000
1.300000 0.400000 0.000000
1.400000 0.400000 0.000000
1.500000 0.400000 0.000000
1.600000 0.400000 0.000000
1.700000 0.400000 0.000000
1.800000 0.400000 0.000000
1.900000 0.400000 0.000000
2.000000 0.400000 0.000000
2.100000 0.400000 0.000000
2.200000 0.400000 0.000000
2.300000 0.400000 0.000000
2.400000 0.400000 0.000000
2.500000 0.400000 0.000000
2.600000 0.400000 0.000000
2.700000 0.400000 0.000000
2.800000 0.400000 0.000000
2.900000 0.400000 0.000000
3.000000 0.400000 0.000000
3.100000 0.400000 0.000000
3.200000 0.400000 0.000000
3.300000 0.400000 0.000000
3.400000 0.400000 0.000000
3.500000 0.400000 0.000000
3.600000 0.400000 0.000000
3.700000 0.400000 0.000000
3.800000 0.400000 0.000000
3.900000 0.400000 0.000000
4.000000 0.400000 0.000000
0.000000 0.500000 0.000000
0.100000 0.500000 0.000000
0.200000 0.500000 0.000000
0.300000 0.500000 0.000000
0.400000 0.500000 0.000000
0.500000 0.500000 0.000000
0.600000 0.500000 0.000000
0.700000 0.500000 0.000000
0.800000 0.500000 0.000000
0.900000 0.500000 0.000000
1.000000 0.500000 0.000000
1.100000 0.500000 0.000000
1.200000 0.500000 0.000000
1.300000 0.500000 0.000000
1.400000 0.500000 0.000000
1.500000 0.500000 0.000000
1.600000 0.500000 0.000000
1.700000 0.500000 0.000000
1.800000 0.500000 0.000000
1.900000 0.500000 0.000000
2.000000 0.500000 0.000000
2.100000 0.500000 0.000000
2.200000 0.500000 0.000000
2.300000 0.500000 0.000000
2.400000 0.500000 0.000000
2.500000 0.500000 0.000000
2.600000 0.500000 0.000000
2.700000 0.500000 0.000000
2.800000 0.500000 0.000000
2.900000 0.500000 0.000000
3.000000 0.500000 0.000000
3.100000 0.500000 0.000000
3.200000 0.500000 0.000000
3.300000 0.500000 0.000000
3.400000 0.500000 0.000000
3.500000 0.500000 0.000000
3.600000 0.500000 0.000000
3.700000 0.500000 0.000000
3.800000 0.500000 0.000000
3.900000 0.500000 0.000000
4.000000 0.500000 0.000000
0.000000 0.600000 0.000000
0.100000 0.600000 0.000000
0.200000 0.600000 0.000000
0.300000 0.600000 0.000000
0.400000 0.600000 0.000000
0.500000 0.600000 0.000000
0.600000 0.600000 0.000000
0.700000 0.600000 0.000000
0.800000 0.600000 0.000000
0.900000 0.600000 0.000000
1.000000 0.600000 0.000000
1.100000 0.600000 0.000000
1.200000 0.600000 0.000000
1.300000 0.600000 0.000000
1.400000 0.600000 0.000000
1.500000 0.600000 0.000000
1.600000 0.600000 0.000000
1.700000 0.600000 0.000000
1.800000 0.600000 0.000000
1.900000 0.600000 0.000000
2.000000 0.600000 0.000000
2.100000 0.600000 0.000000
2.200000 0.600000 0.000000
2.300000 0.600000 0.000000
2.400000 0.600000 0.000000
2.500000 0.600000 0.000000
2.600000 0.600000 0.000000
2.700000 0.600000 0.000000
2.800000 0.600000 0.000000
2.900000 0.600000 0.000000
3.000000 0.600000 0.000000
3.100000 0.600000 0.000000
3.200000 0.600000 0.000000
3.300000 0.600000 0.000000
3.400000 0.600000 0.000000
3.500000 0.600000 0.000000
3.600000 0.600000 0.000000
3.700000 0.600000 0.000000
3.800000 0.600000 0.000000
3.900000 0.600000 0.000000
4.000000 0.600000 0.000000
0.000000 0.700000 0.000000
0.100000 0.700000 0.000000
0.200000 0.700000 0.000000
0.300000 0.700000 0.000000
0.400000 0.700000 0.000000
0.500000 0.700000 0.000000
0.600000 0.700000 0.000000
0.700000 0.700000 0.000000
0.800000 0.700000 0.000000
0.900000 0.700000 0.000000
1.000000 0.700000 0.000000
1.100000 0.700000 0.000000
1.200000 0.700000 0.000000
1.300000 0.700000 0.000000
1.400000 0.700000 0.000000
1.500000 0.700000 0.000000
1.600000 0.700000 0.000000
1.700000 0.700000 0.000000
1.800000 0.700000 0.000000
1.900000 0.700000 0.000000
2.000000 0.700000 0.000000
2.100000 0.700000 0.000000
2.200000 0.700000 0.000000
2.300000 0.700000 0.000000
2.400000 0.700000 0.000000
2.500000 0.700000 0.000000
2.600000 0.700000 0.000000
2.700000 0.700000 0.000000
2.800000 0.700000 0.000000
2.900000 0.700000 0.000000
3.000000 0.700000 0.000000
3.100000 0.700000 0.000000
3.200000 0.700000 0.000000
3.300000 0.700000 0.000000
3.400000 0.700000 0.000000
3.500000 0.700000 0.000000
3.600000 0.700000 0.000000
3.700000 0.700000 0.000000
3.800000 0.700000 0.000000
3.900000 0.700000 0.000000
4.000000 0.700000 0.000000
0.000000 0.800000 0.000000
0.100000 0.800000 0.000000
0.200000 0.800000 0.000000
0.300000 0.800000 0.000000
0.400000 0.800000 0.000000
0.500000 0.800000 0.000000
0.600000 0.800000 0.000000
0.700000 0.800000 0.000000
0.800000 0.800000 0.000000
0.900000 0.800000 0.000000
1.000000 0.800000 0.000000
1.100000 0.800000 0.000000
1.200000 0.800000 0.000000
1.300000 0.800000 0.000000
1.400000 0.800000 0.000000
1.500000 0.800000 0.000000
1.600000 0.800000 0.000000
1.700000 0.800000 0.000000
1.800000 0.800000 0.000000
1.900000 0.800000 0.000000
2.000000 0.800000 0.000000
2.100000 0.800000 0.000000
2.200000 0.800000 0.000000
2.300000 0.800000 0.000000
2.400000 0.800000 0.000000
2.500000 0.800000 0.000000
2.600000 0.800000 0.000000
2.700000 0.800000 0.000000
2.800000 0.800000 0.000000
2.900000 0.800000 0.000000
3.000000 0.800000 0.000000
3.100000 0.800000 0.000000
3.200000 0.800000 0.000000
3.300000 0.800000 0.000000
3.400000 0.800000 0.000000
3.500000 0.800000 0.000000
3.600000 0.800000 0.000000
[...]
CELL_DATA 16000
SCALARS pressure float 1
LOOKUP_TABLE default
34.7403
31.6171
29.2794
27.5352
26.1703
25.0419
24.0632
23.1812
22.3627
21.5859
20.8363
20.104
19.382
18.666
17.9534
17.2431
16.5347
15.8284
15.1242
14.4219
13.7211
13.0212
12.3215
11.6215
10.9209
10.2195
9.51732
8.81436
8.11075
7.40659
6.702
5.99708
5.29192
4.58658
3.88111
3.17556
2.46995
1.76429
1.05861
0.35289
37.0914
31.9769
29.1625
27.3539
26.0204
24.9346
23.9905
23.1334
22.3319
21.5665
20.8244
20.097
19.3781
18.664
17.9526
17.2428
16.5347
15.8285
15.1244
14.4221
13.7214
13.0214
12.3217
11.6217
10.9211
10.2196
9.51742
8.81443
8.11079
7.40662
6.70201
5.99709
5.29192
4.58658
3.88111
3.17556
2.46995
1.76429
1.05861
0.352893
40.45
32.9544
29.3208
27.264
25.8792
24.8039
23.8856
23.0542
22.2742
21.5256
20.7962
20.078
19.3657
18.656
17.9473
17.2392
16.5321
15.8265
15.1229
14.4212
13.7209
13.0214
12.322
11.6221
10.9215
10.2201
9.51781
8.81476
8.11106
7.40682
6.70216
5.99719
5.29199
4.58663
3.88114
3.17558
2.46996
1.7643
1.05862
0.352902
43.9506
34.1993
29.6801
27.2941
25.8002
24.7007
23.7888
22.9735
22.2108
21.4779
20.7616
20.0537
19.349
18.6446
17.9392
17.2331
16.5272
15.8225
15.1198
14.4191
13.7197
13.021
12.3221
11.6226
10.9222
10.2208
9.51845
8.81531
8.11149
7.40716
6.70242
5.99738
5.29213
4.58672
3.88121
3.17562
2.46999
1.76432
1.05863
0.35291
47.2221
35.4827
30.1327
27.4065
25.7794
24.6342
23.7135
22.9041
22.1527
21.4319
20.7269
20.0286
19.3313
18.632
17.9299
17.2256
16.5208
15.817
15.1154
14.416
13.7179
13.0203
12.3223
11.6232
10.923
10.2217
9.51928
8.81602
8.11207
7.40761
6.70276
5.99763
5.2923
4.58684
3.88129
3.17568
2.47002
1.76435
1.05865
0.352917
50.0866
36.6706
30.5963
27.5573
25.797
24.5982
23.66
22.8495
22.104
21.3919
20.696
20.0058
19.3151
18.6202
17.9207
17.2178
16.5137
15.8107
15.1102
14.4123
13.7158
13.0195
12.3224
11.624
10.924
10.2227
9.52025
8.81684
8.11274
7.40812
6.70314
5.99791
5.29251
4.58698
3.88139
3.17574
2.47007
1.76437
1.05866
0.352922
52.4495
37.684
31.0156
27.712
25.8332
24.5828
23.6245
22.8091
22.066
21.3596
20.6705
19.9869
19.3014
18.6101
17.9125
17.2104
16.5067
15.8042
15.1049
14.4085
13.7137
13.0188
12.3227
11.6248
10.9251
10.2238
9.52124
8.81768
8.11342
7.40865
6.70354
5.9982
5.29271
4.58713
3.88149
3.17581
2.47011
1.7644
1.05867
0.352926
54.2568
38.4758
31.3551
27.8462
25.8727
24.579
23.6023
22.781
22.0383
21.3354
20.6511
19.9725
19.291
18.6023
17.9059
17.2043
16.5007
15.7986
15.1002
14.4052
13.7119
13.0183
12.323
11.6256
10.9261
10.2248
9.52215
8.81845
8.11403
7.40912
6.70389
5.99846
5.2929
4.58726
3.88157
3.17587
2.47015
1.76442
1.05869
0.352929
55.4765
39.0171
31.5922
27.9436
25.9046
24.5801
23.5897
22.7634
22.0203
21.3194
20.6382
19.9627
19.284
18.5969
17.9013
17.1999
16.4963
15.7944
15.0967
14.4029
13.7107
13.0179
12.3233
11.6262
10.9269
10.2256
9.52284
8.81903
8.11449
7.40948
6.70416
5.99865
5.29303
4.58735
3.88164
3.17591
2.47018
1.76444
1.05869
0.35293
56.0904
39.2915
31.7138
27.9946
25.9222
24.5817
23.584
22.7549
22.0115
21.3114
20.6317
19.9578
19.2804
18.5942
17.8989
17.1976
16.494
15.7922
15.0949
14.4016
13.71
13.0178
12.3235
11.6266
10.9273
10.226
9.52322
8.81935
8.11474
7.40967
6.7043
5.99876
5.29311
4.58741
3.88167
3.17593
2.47019
1.76445
1.0587
0.352931
56.0904
39.2915
31.7138
27.9946
25.9222
24.5817
23.584
22.7549
22.0114
21.3114
20.6317
19.9578
19.2804
18.5941
17.8989
17.1976
16.494
15.7922
15.0949
14.4016
13.71
13.0178
12.3235
11.6266
10.9273
10.226
9.52322
8.81935
8.11475
7.40967
6.7043
5.99876
5.29311
4.58741
3.88168
3.17593
2.47019
1.76445
1.0587
0.352931
55.4765
39.0171
31.5922
27.9436
25.9046
24.5801
23.5897
22.7634
22.0203
21.3194
20.6381
19.9627
19.2839
18.5969
17.9013
17.1998
16.4963
15.7944
15.0967
14.4029
13.7107
13.0179
12.3233
11.6262
10.9269
10.2256
9.52285
8.81903
8.1145
7.40948
6.70416
5.99865
5.29304
4.58735
3.88164
3.17591
2.47018
1.76444
1.05869
0.35293
54.2568
38.4758
31.3551
27.8462
25.8727
24.579
23.6023
22.781
22.0383
21.3354
20.6511
19.9724
19.291
18.6022
17.9058
17.2042
16.5006
15.7985
15.1001
14.4052
13.7119
13.0183
12.323
11.6256
10.9261
10.2248
9.52215
8.81845
8.11403
7.40912
6.7039
5.99846
5.2929
4.58726
3.88157
3.17587
2.47015
1.76442
1.05869
0.352929
52.4495
37.684
31.0156
27.712
25.8332
24.5827
23.6244
22.809
22.0659
21.3595
20.6704
19.9868
19.3014
18.61
17.9124
17.2103
16.5066
15.8042
15.1048
14.4085
13.7137
13.0188
12.3227
11.6248
10.9251
10.2238
9.52124
8.81769
8.11342
7.40865
6.70354
5.9982
5.29271
4.58713
3.88149
3.17581
2.47011
1.7644
1.05867
0.352926
50.0865
36.6705
30.5962
27.5573
25.7969
24.5981
23.6599
22.8494
22.1039
21.3919
20.6959
20.0057
19.315
18.6201
17.9206
17.2177
16.5136
15.8106
15.1101
14.4122
13.7158
13.0195
12.3224
11.624
10.924
10.2227
9.52025
8.81684
8.11274
7.40813
6.70315
5.99791
5.29251
4.58699
3.88139
3.17574
2.47007
1.76437
1.05866
0.352922
47.2221
35.4827
30.1326
27.4064
25.7793
24.6341
23.7134
22.904
22.1526
21.4319
20.7268
20.0285
19.3312
18.6319
17.9298
17.2255
16.5207
15.817
15.1154
14.4159
13.7179
13.0203
12.3223
11.6232
10.923
10.2217
9.51929
8.81602
8.11208
7.40761
6.70276
5.99763
5.2923
4.58684
3.88129
3.17568
2.47002
1.76435
1.05865
0.352917
43.9506
34.1993
29.68
27.294
25.8001
24.7006
23.7887
22.9734
22.2107
21.4778
20.7615
20.0536
19.3489
18.6445
17.9391
17.233
16.5271
15.8225
15.1198
14.419
13.7197
13.021
12.3221
11.6226
10.9222
10.2208
9.51845
8.81531
8.1115
7.40716
6.70242
5.99738
5.29213
4.58672
3.88121
3.17562
2.46999
1.76432
1.05863
0.35291
40.4498
32.9542
29.3207
27.2639
25.879
24.8038
23.8855
23.0541
22.2741
21.5255
20.7961
20.078
19.3656
18.6559
17.9472
17.2391
16.532
15.8265
15.1229
14.4212
13.7209
13.0214
12.322
11.6221
10.9215
10.2201
9.51782
8.81477
8.11106
7.40682
6.70216
5.9972
5.29199
4.58663
3.88114
3.17558
2.46996
1.7643
1.05862
0.352902
37.0912
31.9766
29.1623
27.3537
26.0203
24.9345
23.9904
23.1333
22.3318
21.5664
20.8243
20.0969
19.378
18.6639
17.9525
17.2427
16.5347
15.8285
15.1243
14.4221
13.7213
13.0214
12.3217
11.6217
10.9211
10.2197
9.51742
8.81444
8.1108
7.40662
6.70202
5.99709
5.29192
4.58658
3.88111
3.17556
2.46995
1.76429
1.05861
0.352893
34.7399
31.6168
29.2792
27.5351
26.1702
25.0418
24.0631
23.1811
22.3626
21.5858
20.8363
20.1039
19.3819
18.6659
17.9533
17.243
16.5346
15.8283
15.1241
14.4219
13.7211
13.0212
12.3215
11.6215
10.9209
10.2195
9.51732
8.81437
8.11075
7.40659
6.702
5.99708
5.29192
4.58658
3.88111
3.17556
2.46995
1.76429
1.05861
0.35289
32.3728
30.938
29.1978
27.6197
26.2768
25.131
24.1291
23.2275
22.3942
21.6069
20.8501
20.1128
19.3876
18.6694
17.9554
17.2441
16.5351
15.8284
15.124
14.4217
13.721
13.0211
12.3214
11.6215
10.9209
10.2195
9.51731
8.81436
8.11074
7.40658
6.70199
5.99707
5.29191
4.58657
3.88111
3.17555
2.46994
1.76429
1.05861
0.352893
33.0741
31.1311
29.1737
27.5448
26.2086
25.0819
24.0975
23.2085
22.3836
21.6015
20.8478
20.1122
19.3878
18.6702
17.9564
17.2454
16.5365
15.8298
15.1253
14.4228
13.7218
13.0216
12.3217
11.6216
10.9208
10.2194
9.51714
8.81417
8.11056
7.40642
6.70185
5.99696
5.29182
4.5865
3.88105
3.17552
2.46991
1.76427
1.05859
0.352888
34.4739
31.8053
29.4052
27.5784
26.1707
25.0269
24.0458
23.1664
22.3515
21.5781
20.8312
20.1009
19.3803
18.6653
17.9533
17.2433
16.5352
15.829
15.1248
14.4226
13.7218
13.0218
12.322
11.6218
10.9211
10.2196
9.5173
8.81429
8.11064
7.40647
6.70188
5.99697
5.29182
4.5865
3.88105
3.17551
2.46991
1.76426
1.05859
0.352891
36.124
32.7138
29.802
27.7097
26.1822
24.9919
23.9981
23.1203
22.3123
21.547
20.8078
20.0839
19.3683
18.6569
17.9473
17.2389
16.5317
15.8262
15.1228
14.4212
13.7211
13.0216
12.3222
11.6222
10.9216
10.2201
9.51774
8.81465
8.11093
7.40669
6.70204
5.99708
5.2919
4.58655
3.88108
3.17553
2.46992
1.76427
1.05859
0.352894
37.7652
33.6821
30.2735
27.9024
26.2357
24.9823
23.9639
23.0802
22.2747
21.5153
20.7828
20.0652
19.3548
18.647
17.9399
17.2329
16.5267
15.822
15.1195
14.419
13.7199
13.0212
12.3223
11.6228
10.9223
10.2208
9.51838
8.8152
8.11137
7.40703
6.70229
5.99727
5.29203
4.58664
3.88114
3.17557
2.46994
1.76428
1.0586
0.352897
39.2542
34.5978
30.7482
28.118
26.3138
24.9926
23.944
23.0494
22.2429
21.487
20.7597
20.0475
19.3417
18.6373
17.9322
17.2265
16.521
15.817
15.1155
14.4163
13.7183
13.0207
12.3225
11.6234
10.9231
10.2216
9.51915
8.81586
8.1119
7.40744
6.70261
5.9975
5.29219
4.58675
3.88122
3.17562
2.46997
1.7643
1.05861
0.352898
40.5092
35.3901
31.1753
28.3242
26.3984
25.0141
23.9351
23.0278
22.2181
21.4638
20.7403
20.0324
19.3304
18.6287
17.9252
17.2203
16.5153
15.8119
15.1114
14.4134
13.7168
13.0202
12.3228
11.624
10.9239
10.2225
9.51996
8.81655
8.11246
7.40788
6.70293
5.99774
5.29236
4.58687
3.8813
3.17567
2.47001
1.76432
1.05862
0.352898
41.4821
36.0147
31.5206
28.4973
26.4745
25.0382
23.9329
23.0139
22.2002
21.4463
20.7253
20.0206
19.3216
18.6218
17.9194
17.2151
16.5104
15.8075
15.1078
14.411
13.7155
13.0198
12.3231
11.6247
10.9247
10.2233
9.52071
8.81718
8.11297
7.40827
6.70323
5.99795
5.29252
4.58698
3.88137
3.17572
2.47004
1.76434
1.05863
0.352898
42.144
36.444
31.7616
28.621
26.531
25.058
23.9337
23.0057
22.1888
21.4347
20.7152
20.0126
19.3155
18.6169
17.9153
17.2113
16.5068
15.8042
15.1052
14.4092
13.7146
13.0196
12.3233
11.6252
10.9254
10.2239
9.52128
8.81766
8.11336
7.40857
6.70346
5.99812
5.29264
4.58706
3.88143
3.17576
2.47006
1.76435
1.05863
0.352897
42.4785
36.6623
31.8852
28.6853
26.561
25.0691
23.9348
23.002
22.1833
21.429
20.7101
20.0085
19.3123
18.6145
17.9132
17.2093
16.505
15.8025
15.1038
14.4083
13.7141
13.0195
12.3235
11.6255
10.9257
10.2243
9.52159
8.81792
8.11357
7.40873
6.70358
5.99821
5.2927
4.58711
3.88146
3.17578
2.47008
1.76436
1.05864
0.352896
42.4785
36.6623
31.8852
28.6853
26.561
25.0691
23.9348
23.002
22.1833
21.429
20.7101
20.0085
19.3123
18.6145
17.9132
17.2093
16.5049
15.8025
15.1038
14.4083
13.7141
13.0195
12.3235
11.6255
10.9257
10.2243
9.52159
8.81792
8.11357
7.40873
6.70358
5.99821
5.2927
4.58711
3.88146
3.17578
2.47008
1.76436
1.05864
0.352896
42.144
36.444
31.7616
28.621
26.531
25.058
23.9337
23.0057
22.1888
21.4347
20.7152
20.0126
19.3154
18.6169
17.9153
17.2113
16.5068
15.8042
15.1052
14.4092
13.7146
13.0196
12.3233
11.6252
10.9254
10.2239
9.52128
8.81766
8.11336
7.40857
6.70346
5.99812
5.29264
4.58706
3.88143
3.17576
2.47006
1.76435
1.05863
0.352897
41.4821
36.0147
31.5206
28.4973
26.4744
25.0381
23.9329
23.0138
22.2002
21.4463
20.7252
20.0206
19.3215
18.6217
17.9193
17.215
16.5104
15.8074
15.1078
14.411
13.7155
13.0198
12.323
11.6247
10.9247
10.2233
9.52071
8.81718
8.11297
7.40827
6.70323
5.99796
5.29252
4.58698
3.88137
3.17572
2.47004
1.76434
1.05863
0.352898
40.5092
35.3901
31.1753
28.3242
26.3984
25.0141
23.935
23.0278
22.218
21.4637
20.7402
20.0323
19.3304
18.6286
17.9251
17.2202
16.5153
15.8119
15.1114
14.4134
13.7168
13.0202
12.3228
11.624
10.9239
10.2225
9.51997
8.81655
8.11247
7.40788
6.70294
5.99774
5.29237
4.58687
3.8813
3.17567
2.47001
1.76432
1.05862
0.352898
39.2542
34.5978
30.7481
28.1179
26.3138
24.9925
23.9439
23.0493
22.2428
21.4869
20.7596
20.0474
19.3416
18.6372
17.9321
17.2264
16.5209
15.817
15.1155
14.4162
13.7183
13.0207
12.3225
11.6234
10.9231
10.2216
9.51916
8.81586
8.11191
7.40745
6.70261
5.9975
5.29219
4.58675
3.88122
3.17562
2.46997
1.7643
1.05861
0.352898
37.7652
33.6821
30.2734
27.9024
26.2356
24.9822
23.9638
23.0801
22.2746
21.5153
20.7827
20.0651
19.3547
18.647
17.9398
17.2328
16.5266
15.8219
15.1194
14.419
13.7198
13.0212
12.3223
11.6228
10.9223
10.2208
9.51839
8.8152
8.11137
7.40703
6.7023
5.99727
5.29203
4.58664
3.88114
3.17557
2.46994
1.76428
1.0586
0.352897
36.1239
32.7137
29.8019
27.7096
26.1821
24.9918
23.998
23.1202
22.3122
21.5469
20.8077
20.0838
19.3683
18.6568
17.9472
17.2388
16.5316
15.8261
15.1227
14.4212
13.7211
13.0216
12.3221
11.6222
10.9216
10.2201
9.51774
8.81466
8.11093
7.40669
6.70204
5.99709
5.2919
4.58655
3.88108
3.17553
2.46992
1.76427
1.05859
0.352894
34.4738
31.8051
29.4051
27.5783
26.1705
25.0268
24.0457
23.1663
22.3514
21.578
20.8311
20.1008
19.3802
18.6652
17.9532
17.2432
16.5351
15.8289
15.1248
14.4226
13.7218
13.0218
12.322
11.6218
10.9211
10.2196
9.51731
8.81429
8.11064
7.40647
6.70188
5.99697
5.29183
4.5865
3.88105
3.17551
2.46991
1.76426
1.05859
0.352891
33.0738
31.1308
29.1735
27.5446
26.2085
25.0818
24.0974
23.2084
22.3835
21.6015
20.8477
20.1121
19.3877
18.6701
17.9563
17.2453
16.5364
15.8298
15.1253
14.4228
13.7218
13.0216
12.3217
11.6216
10.9208
10.2194
9.51714
8.81417
8.11056
7.40642
6.70186
5.99696
5.29182
4.5865
3.88105
3.17552
2.46991
1.76427
1.05859
0.352888
32.3724
30.9376
29.1975
27.6195
26.2767
25.1308
24.129
23.2274
22.3941
21.6068
20.85
20.1127
19.3875
18.6693
17.9553
17.244
16.535
15.8284
15.124
14.4217
13.7209
13.0211
12.3214
11.6215
10.9209
10.2195
9.51732
8.81436
8.11074
7.40658
6.70199
5.99707
5.29191
4.58657
3.88111
3.17555
2.46994
1.76429
1.05861
0.352893
30.4496
29.7861
28.6442
27.3968
26.2107
25.1309
24.1524
23.2556
22.42
21.6283
20.867
20.1258
19.3972
18.6763
17.96
17.2468
16.5364
15.8288
15.1239
14.4215
13.7208
13.0211
12.3216
11.6218
10.9212
10.2198
9.51761
8.81461
8.11094
7.40673
6.7021
5.99715
5.29196
4.58661
3.88113
3.17557
2.46995
1.7643
1.05861
0.352901
30.5814
29.8147
28.5991
27.3343
26.1577
25.094
24.1299
23.2436
22.4147
21.6269
20.8675
20.1271
19.3989
18.6781
17.962
17.249
16.5388
15.8312
15.1262
14.4234
13.7222
13.022
12.322
11.6218
10.921
10.2195
9.51724
8.81423
8.11059
7.40643
6.70185
5.99695
5.29181
4.58649
3.88104
3.1755
2.4699
1.76426
1.05859
0.35289
31.0992
30.1531
28.7544
27.3799
26.1519
25.0698
24.1028
23.2197
22.3957
21.6127
20.8573
20.1201
19.3942
18.6752
17.9602
17.2481
16.5385
15.8312
15.1264
14.4238
13.7227
13.0224
12.3224
11.6221
10.9212
10.2196
9.51725
8.8142
8.11054
7.40636
6.70178
5.99689
5.29175
4.58644
3.881
3.17547
2.46988
1.76424
1.05857
0.352889
31.8318
30.6724
29.041
27.5078
26.1913
25.0662
24.0817
23.1941
22.3716
21.5923
20.8414
20.1083
19.3858
18.6692
17.9559
17.2449
16.5359
15.8292
15.125
14.423
13.7224
13.0226
12.3227
11.6225
10.9216
10.22
9.51757
8.81445
8.11071
7.40649
6.70186
5.99694
5.29178
4.58645
3.881
3.17547
2.46987
1.76424
1.05857
0.35289
32.6298
31.2632
29.3926
27.6857
26.2641
25.0825
24.0709
23.1726
22.348
21.5708
20.8237
20.0948
19.3759
18.6619
17.9502
17.2401
16.5317
15.8257
15.1223
14.4213
13.7217
13.0225
12.3231
11.6231
10.9223
10.2206
9.51813
8.8149
8.11107
7.40675
6.70205
5.99707
5.29187
4.58651
3.88104
3.17549
2.46988
1.76424
1.05857
0.352889
33.3931
31.8446
29.7547
27.8817
26.3547
25.1129
24.0699
23.1572
22.3278
21.5511
20.8068
20.0817
19.3662
18.6544
17.944
17.2347
16.5267
15.8211
15.1188
14.4191
13.7207
13.0225
12.3236
11.6239
10.9232
10.2215
9.51884
8.81549
8.11153
7.4071
6.70231
5.99725
5.29199
4.5866
3.8811
3.17553
2.46991
1.76425
1.05858
0.352886
34.0576
32.3609
30.086
28.0686
26.4472
25.1492
24.0755
23.1476
22.3123
21.5346
20.7924
20.0704
19.3579
18.6478
17.9383
17.2293
16.5215
15.8163
15.1151
14.4169
13.7198
13.0225
12.3242
11.6248
10.9241
10.2223
9.51961
8.81612
8.11203
7.40748
6.70259
5.99745
5.29214
4.58669
3.88116
3.17557
2.46993
1.76426
1.05858
0.352883
34.5835
32.7749
30.3568
28.2257
26.5282
25.1838
24.0838
23.1424
22.3011
21.5222
20.7811
20.0615
19.3514
18.6424
17.9334
17.2247
16.517
15.8119
15.1118
14.415
13.7191
13.0226
12.3249
11.6256
10.925
10.2232
9.52032
8.8167
8.11249
7.40783
6.70285
5.99764
5.29227
4.58678
3.88122
3.17561
2.46995
1.76428
1.05858
0.352879
34.9458
33.0625
30.5474
28.3382
26.5877
25.2105
24.0915
23.14
22.2941
21.5138
20.7733
20.0553
19.3467
18.6384
17.9298
17.2213
16.5137
15.8088
15.1095
14.4137
13.7187
13.0228
12.3254
11.6263
10.9257
10.2238
9.52088
8.81716
8.11284
7.4081
6.70305
5.99779
5.29237
4.58686
3.88127
3.17564
2.46997
1.76429
1.05859
0.352876
35.1302
33.2095
30.6455
28.3967
26.619
25.2249
24.096
23.1391
22.2907
21.5096
20.7694
20.0521
19.3443
18.6364
17.928
17.2196
16.512
15.8072
15.1083
14.4131
13.7185
13.0229
12.3257
11.6267
10.9261
10.2242
9.52118
8.8174
8.11304
7.40825
6.70316
5.99787
5.29243
4.58689
3.8813
3.17565
2.46998
1.76429
1.05859
0.352874
35.1302
33.2096
30.6455
28.3967
26.619
25.2248
24.096
23.1391
22.2907
21.5096
20.7694
20.0521
19.3443
18.6364
17.9279
17.2195
16.512
15.8072
15.1083
14.4131
13.7185
13.0229
12.3257
11.6267
10.9261
10.2242
9.52118
8.8174
8.11304
7.40825
6.70316
5.99787
5.29243
4.58689
3.8813
3.17565
2.46998
1.76429
1.05859
0.352874
34.9458
33.0625
30.5474
28.3382
26.5877
25.2104
24.0915
23.14
22.2941
21.5138
20.7733
20.0553
19.3467
18.6384
17.9298
17.2213
16.5137
15.8088
15.1095
14.4137
13.7187
13.0228
12.3254
11.6263
10.9257
10.2238
9.52088
8.81716
8.11284
7.4081
6.70305
5.99779
5.29237
4.58686
3.88127
3.17564
2.46997
1.76429
1.05859
0.352876
34.5835
32.7749
30.3568
28.2257
26.5282
25.1838
24.0838
23.1424
22.3011
21.5221
20.781
20.0615
19.3514
18.6423
17.9333
17.2247
16.5169
15.8118
15.1118
14.415
13.7191
13.0226
12.3249
11.6256
10.925
10.2232
9.52033
8.81671
8.11249
7.40783
6.70285
5.99764
5.29227
4.58679
3.88122
3.17561
2.46995
1.76428
1.05858
0.352879
34.0576
32.3609
30.086
28.0686
26.4472
25.1492
24.0754
23.1476
22.3122
21.5346
20.7923
20.0703
19.3579
18.6477
17.9382
17.2293
16.5215
15.8162
15.1151
14.4169
13.7198
13.0225
12.3242
11.6248
10.9241
10.2223
9.51961
8.81612
8.11203
7.40748
6.70259
5.99745
5.29214
4.58669
3.88116
3.17557
2.46993
1.76427
1.05858
0.352883
33.3931
31.8446
29.7547
27.8816
26.3547
25.1128
24.0698
23.1571
22.3278
21.551
20.8067
20.0816
19.3662
18.6543
17.944
17.2346
16.5266
15.8211
15.1188
14.4191
13.7207
13.0224
12.3236
11.6239
10.9232
10.2215
9.51885
8.81549
8.11153
7.4071
6.70231
5.99725
5.292
4.5866
3.8811
3.17553
2.46991
1.76425
1.05858
0.352886
32.6298
31.2632
29.3926
27.6856
26.2641
25.0825
24.0708
23.1725
22.3479
21.5707
20.8236
20.0947
19.3758
18.6618
17.9501
17.24
16.5317
15.8256
15.1223
14.4213
13.7217
13.0225
12.3231
11.6231
10.9223
10.2206
9.51813
8.8149
8.11107
7.40675
6.70205
5.99707
5.29187
4.58651
3.88104
3.17549
2.46988
1.76424
1.05857
0.352889
31.8317
30.6724
29.0409
27.5077
26.1911
25.0661
24.0816
23.194
22.3715
21.5922
20.8413
20.1082
19.3857
18.6691
17.9558
17.2448
16.5358
15.8291
15.125
14.4229
13.7224
13.0225
12.3227
11.6225
10.9216
10.22
9.51757
8.81445
8.11072
7.40649
6.70187
5.99694
5.29178
4.58645
3.881
3.17547
2.46987
1.76424
1.05857
0.35289
31.099
30.1529
28.7543
27.3797
26.1518
25.0697
24.1027
23.2196
22.3956
21.6126
20.8572
20.12
19.3941
18.6751
17.9601
17.248
16.5384
15.8312
15.1264
14.4237
13.7226
13.0224
12.3224
11.6221
10.9212
10.2196
9.51725
8.8142
8.11054
7.40637
6.70179
5.99689
5.29175
4.58644
3.881
3.17547
2.46988
1.76424
1.05857
0.352889
30.5811
29.8144
28.5988
27.3341
26.1576
25.0939
24.1298
23.2435
22.4146
21.6268
20.8674
20.127
19.3988
18.678
17.9619
17.249
16.5388
15.8312
15.1261
14.4233
13.7222
13.022
12.322
11.6218
10.921
10.2195
9.51724
8.81423
8.1106
7.40643
6.70185
5.99695
5.29181
4.58649
3.88104
3.1755
2.4699
1.76426
1.05859
0.35289
30.4491
29.7857
28.6438
27.3966
26.2105
25.1308
24.1523
23.2555
22.42
21.6283
20.8669
20.1257
19.3971
18.6762
17.9599
17.2467
16.5363
15.8287
15.1239
14.4215
13.7208
13.0211
12.3216
11.6218
10.9212
10.2198
9.51762
8.81461
8.11094
7.40673
6.7021
5.99715
5.29196
4.58661
3.88113
3.17557
2.46995
1.7643
1.05861
0.352901
29.0266
28.6723
27.9254
26.9849
25.9954
25.0291
24.1119
23.2461
22.425
21.6392
20.8795
20.1378
19.4078
18.6848
17.9661
17.2507
16.5383
15.8293
15.1238
14.4212
13.7208
13.0214
12.3221
11.6224
10.922
10.2205
9.51822
8.81511
8.11133
7.40703
6.70232
5.99731
5.29207
4.58668
3.88118
3.1756
2.46997
1.76431
1.05863
0.352908
28.9884
28.6362
27.8687
26.9256
25.9464
24.9944
24.09
23.234
22.4193
21.6373
20.8795
20.1387
19.409
18.6863
17.9681
17.2532
16.5414
15.8326
15.1269
14.4238
13.7226
13.0225
12.3226
11.6224
10.9216
10.22
9.51767
8.81458
8.11085
7.40662
6.70198
5.99704
5.29187
4.58652
3.88106
3.17551
2.46991
1.76426
1.05859
0.352893
29.1357
28.7732
27.9454
26.9522
25.9444
24.9801
24.0728
23.2181
22.4064
21.6275
20.8724
20.1338
19.4058
18.6844
17.9671
17.2529
16.5416
15.8331
15.1277
14.4247
13.7235
13.0233
12.3232
11.6228
10.9218
10.22
9.51758
8.81443
8.11069
7.40646
6.70184
5.99692
5.29176
4.58644
3.88099
3.17546
2.46987
1.76423
1.05857