# vtk DataFile Version 2.0
I need something to put here
ASCII

DATASET STRUCTURED_GRID
DIMENSIONS 41 21 21
POINTS 18081 float
0.000000 0.000000 0.000000
0.100000 0.000000 0.000000
0.200000 0.000000 0.000000
0.300000 0.000000 0.000000
0.400000 0.000000 0.000000
0.500000 0.000000 0.000000
0.600000 0.000000 0.000000
0.700000 0.000000 0.000000
0.800000 0.000000 0.000000
0.900000 0.000000 0.000000
1.000000 0.000000 0.000000
1.100000 0.000000 0.000000
1.200000 0.000000 0.000000
1.300000 0.000000 0.000000
1.400000 0.000000 0.000000
1.500000 0.000000 0.000000
1.600000 0.000000 0.000000
1.700000 0.000000 0.000000
1.800000 0.000000 0.000000
1.900000 0.000000 0.000000
2.000000 0.000000 0.000000
2.100000 0.000000 0.000000
2.200000 0.000000 0.000000
2.300000 0.000000 0.000000
2.400000 0.000000 0.000000
2.500000 0.000000 0.000000
2.600000 0.000000 0.000000
2.700000 0.000000 0.000000
2.800000 0.000000 0.000000
2.900000 0.000000 0.000000
3.000000 0.000000 0.000000
3.100000 0.000000 0.000000
3.200000 0.000000 0.000000
3.300000 0.000000 0.000000
3.400000 0.000000 0.000000
3.500000 0.000000 0.000000
3.600000 0.000000 0.000000
3.700000 0.000000 0.000000
3.800000 0.000000 0.000000
3.900000 0.000000 0.000000
4.000000 0.000000 0.000000
0.000000 0.100000 0.000000
0.100000 0.100000 0.000000
0.200000 0.100000 0.000000
0.300000 0.100000 0.000000
0.400000 0.100000 0.000000
0.500000 0.100000 0.000000
0.600000 0.100000 0.000000
0.700000 0.100000 0.000000
0.800000 0.100000 0.000000
0.900000 0.100000 0.000000
1.000000 0.100000 0.000000
1.100000 0.100000 0.000000
1.200000 0.100000 0.000000
1.300000 0.100000 0.000000
1.400000 0.100000 0.000000
1.500000 0.100000 0.000000
1.600000 0.100000 0.000000
1.700000 0.100000 0.000000
1.800000 0.100000 0.000000
1.900000 0.100000 0.000000
2.000000 0.100000 0.000000
2.100000 0.100000 0.000000
2.200000 0.100000 0.000000
2.300000 0.100000 0.000000
2.400000 0.100000 0.000000
2.500000 0.100000 0.000000
2.600000 0.100000 0.000000
2.700000 0.100000 0.000000
2.800000 0.100000 0.000000
2.900000 0.100000 0.000000
3.000000 0.100000 0.000000
3.100000 0.100000 0.000000
3.200000 0.100000 0.000000
3.300000 0.100000 0.000000
3.400000 0.100000 0.000000
3.500000 0.100000 0.000000
3.600000 0.100000 0.000000
3.700000 0.100000 0.000000
3.800000 0.100000 0.000000
3.900000 0.100000 0.000000
4.000000 0.100000 0.000000
0.000000 0.200000 0.000000
0.100000 0.200000 0.000000
0.200000 0.200000 0.000000
0.300000 0.200000 0.000000
0.400000 0.200000 0.000000
0.500000 0.200000 0.000000
0.600000 0.200000 0.000000
0.700000 0.200000 0.000000
0.800000 0.200000 0.000000
0.900000 0.200000 0.000000
1.000000 0.200000 0.000000
1.100000 0.200000 0.000000
1.200000 0.200000 0.000000
1.300000 0.200000 0.000000
1.400000 0.200000 0.000000
1.500000 0.200000 0.000000
1.600000 0.200000 0.000000
1.700000 0.200000 0.000000
1.800000 0.200000 0.000000
1.900000 0.200000 0.000000
2.000000 0.200000 0.000000
2.100000 0.200000 0.000000
2.200000 0.200000 0.000000
2.300000 0.200000 0.000000
2.400000 0.200000 0.000000
2.500000 0.200000 0.000000
2.600000 0.200000 0.000000
2.700000 0.200000 0.000000
2.800000 0.200000 0.000000
2.900000 0.200000 0.000000
3.000000 0.200000 0.000000
3.100000 0.200000 0.000000
3.200000 0.200000 0.000000
3.300000 0.200000 0.000000
3.400000 0.200000 0.000000
3.500000 0.200000 0.000000
3.600000 0.200000 0.000000
3.700000 0.200000 0.000000
3.800000 0.200000 0.000000
3.900000 0.200000 0.000000
4.000000 0.200000 0.000000
0.000000 0.300000 0.000000
0.100000 0.300000 0.000000
0.200000 0.300000 0.000000
0.300000 0.300000 0.000000
0.400000 0.300000 0.000000
0.500000 0.300000 0.000000
0.600000 0.300000 0.000000
0.700000 0.300000 0.000000
0.800000 0.300000 0.000000
0.900000 0.300000 0.000000
1.000000 0.300000 0.000000
1.100000 0.300000 0.000000
1.200000 0.300000 0.000000
1.300000 0.300000 0.000000
1.400000 0.300000 0.000000
1.500000 0.300000 0.000000
1.600000 0.300000 0.000000
1.700000 0.300000 0.000000
1.800000 0.300000 0.000000
1.900000 0.300000 0.000000
2.000000 0.300000 0.000000
2.100000 0.300000 0.000000
2.200000 0.300000 0.000000
2.300000 0.300000 0.000000
2.400000 0.300000 0.000000
2.500000 0.300000 0.000000
2.600000 0.300000 0.000000
2.700000 0.300000 0.000000
2.800000 0.300000 0.000000
2.900000 0.300000 0.000000
3.000000 0.300000 0.000000
3.100000 0.300000 0.000000
3.200000 0.300000 0.000000
3.300000 0.300000 0.000000
3.400000 0.300000 0.000000
3.500000 0.300000 0.000000
3.600000 0.300000 0.000000
3.700000 0.300000 0.000000
3.800000 0.300000 0.000000
3.900000 0.300000 0.000000
4.000000 0.300000 0.000000
0.000000 0.400000 0.000000
0.100000 0.400000 0.000000
0.200000 0.400000 0.000000
0.300000 0.400000 0.000000
0.400000 0.400000 0.000000
0.500000 0.400000 0.000000
0.600000 0.400000 0.000000
0.700000 0.400000 0.000000
0.800000 0.400000 0.000000
0.900000 0.400000 0.000000
1.000000 0.400000 0.000000
1.100000 0.400000 0.000000
1.200000 0.400000 0.000000
1.300000 0.400000 0.000000
1.400000 0.400000 0.000000
1.500000 0.400000 0.000000
1.600000 0.400000 0.000000
1.700000 0.400000 0.000000
1.800000 0.400000 0.000000
1.900000 0.400000 0.000000
2.000000 0.400000 0.000000
2.100000 0.400000 0.000000
2.200000 0.400000 0.000000
2.300000 0.400000 0.000000
2.400000 0.400000 0.000000
2.500000 0.400000 0.000000
2.600000 0.400000 0.000000
2.700000 0.400000 0.000000
2.800000 0.400000 0.000000
2.900000 0.400000 0.000000
3.000000 0.400000 0.000000
3.100000 0.400000 0.000000
3.200000 0.400000 0.000000
3.300000 0.400000 0.000000
3.400000 0.400000 0.000000
3.500000 0.400000 0.000000
3.600000 0.400000 0.000000
3.700000 0.400000 0.000000
3.800000 0.400000 0.000000
3.900000 0.400000 0.000000
4.000000 0.400000 0.000000
0.000000 0.500000 0.000000
0.100000 0.500000 0.000000
0.200000 0.500000 0.000000
0.300000 0.500000 0.000000
0.400000 0.500000 0.000000
0.500000 0.500000 0.000000
0.600000 0.500000 0.000000
0.700000 0.500000 0.000000
0.800000 0.500000 0.000000
0.900000 0.500000 0.000000
1.000000 0.500000 0.000000
1.100000 0.500000 0.000000
1.200000 0.500000 0.000000
1.300000 0.500000 0.000000
1.400000 0.500000 0.000000
1.500000 0.500000 0.000000
1.600000 0.500000 0.000000
1.700000 0.500000 0.000000
1.800000 0.500000 0.000000
1.900000 0.500000 0.000000
2.000000 0.500000 0.000000
2.100000 0.500000 0.000000
2.200000 0.500000 0.000000
2.300000 0.500000 0.000000
2.400000 0.500000 0.000000
2.500000 0.500000 0.000000
2.600000 0.500000 0.000000
2.700000 0.500000 0.000000
2.800000 0.500000 0.000000
2.900000 0.500000 0.000000
3.000000 0.500000 0.000000
3.100000 0.500000 0.000000
3.200000 0.500000 0.000000
3.300000 0.500000 0.000000
3.400000 0.500000 0.000000
3.500000 0.500000 0.000000
3.600000 0.500000 0.000000
3.700000 0.500000 0.000000
3.800000 0.500000 0.000000
3.900000 0.500000 0.000000
4.000000 0.500000 0.000000
0.000000 0.600000 0.000000
0.100000 0.600000 0.000000
0.200000 0.600000 0.000000
0.300000 0.600000 0.000000
0.400000 0.600000 0.000000
0.500000 0.600000 0.000000
0.600000 0.600000 0.000000
0.700000 0.600000 0.000000
0.800000 0.600000 0.000000
0.900000 0.600000 0.000000
1.000000 0.600000 0.000000
1.100000 0.600000 0.000000
1.200000 0.600000 0.000000
1.300000 0.600000 0.000000
1.400000 0.600000 0.000000
1.500000 0.600000 0.000000
1.600000 0.600000 0.000000
1.700000 0.600000 0.000000
1.800000 0.600000 0.000000
1.900000 0.600000 0.000000
2.000000 0.600000 0.000000
2.100000 0.600000 0.000000
2.200000 0.600000 0.000000
2.300000 0.600000 0.000000
2.400000 0.600000 0.000000
2.500000 0.600000 0.000000
2.600000 0.600000 0.000000
2.700000 0.600000 0.000000
2.800000 0.600000 0.000000
2.900000 0.600000 0.000000
3.000000 0.600000 0.000000
3.100000 0.600000 0.000000
3.200000 0.600000 0.000000
3.300000 0.600000 0.000000
3.400000 0.600000 0.000000
3.500000 0.600000 0.000000
3.600000 0.600000 0.000000
3.700000 0.600000 0.000000
3.800000 0.600000 0.000000
3.900000 0.600000 0.000000
4.000000 0.600000 0.000000
0.000000 0.700000 0.000000
0.100000 0.700000 0.000000
0.200000 0.700000 0.000000
0.300000 0.700000 0.000000
0.400000 0.700000 0.000000
0.500000 0.700000 0.000000
0.600000 0.700000 0.000000
0.700000 0.700000 0.000000
0.800000 0.700000 0.000000
0.900000 0.700000 0.000000
1.000000 0.700000 0.000000
1.100000 0.700000 0.000000
1.200000 0.700000 0.000000
1.300000 0.700000 0.000000
1.400000 0.700000 0.000000
1.500000 0.700000 0.000000
1.600000 0.700000 0.000000
1.700000 0.700000 0.000000
1.800000 0.700000 0.000000
1.900000 0.700000 0.000000
2.000000 0.700000 0.000000
2.100000 0.700000 0.000000
2.200000 0.700000 0.000000
2.300000 0.700000 0.000000
2.400000 0.700000 0.000000
2.500000 0.700000 0.000000
2.600000 0.700000 0.000000
2.700000 0.700000 0.000000
2.800000 0.700000 0.000000
2.900000 0.700000 0.000000
3.000000 0.700000 0.000000
3.100000 0.700000 0.000000
3.200000 0.700000 0.000000
3.300000 0.700000 0.000000
3.400000 0.700000 0.000000
3.500000 0.700000 0.000000
3.600000 0.700000 0.000000
3.700000 0.700000 0.000000
3.800000 0.700000 0.000000
3.900000 0.700000 0.000000
4.000000 0.700000 0.000000
0.000000 0.800000 0.000000
0.100000 0.800000 0.000000
0.200000 0.800000 0.000000
0.300000 0.800000 0.000000
0.400000 0.800000 0.000000
0.500000 0.800000 0.000000
0.600000 0.800000 0.000000
0.700000 0.800000 0.000000
0.800000 0.800000 0.000000
0.900000 0.800000 0.000000
1.000000 0.800000 0.000000
1.100000 0.800000 0.000000
1.200000 0.800000 0.000000
1.300000 0.800000 0.000000
1.400000 0.800000 0.000000
1.500000 0.800000 0.000000
1.600000 0.800000 0.000000
1.700000 0.800000 0.000000
1.800000 0.800000 0.000000
1.900000 0.800000 0.000000
2.000000 0.800000 0.000000
2.100000 0.800000 0.000000
2.200000 0.800000 0.000000
2.300000 0.800000 0.000000
2.400000 0.800000 0.000000
2.500000 0.800000 0.000000
2.600000 0.800000 0.000000
2.700000 0.800000 0.000000
2.800000 0.800000 0.000000
2.900000 0.800000 0.000000
3.000000 0.800000 0.000000
3.100000 0.800000 0.000000
3.200000 0.800000 0.000000
3.300000 0.800000 0.000000
3.400000 0.800000 0.000000
3.500000 0.800000 0.000000
3.600000 0.800000 0.000000
[...]
CELL_DATA 16000
SCALARS pressure float 1
LOOKUP_TABLE default
34.8114
31.6882
29.3506
27.6063
26.2412
25.1124
24.133
23.25
22.4299
21.6511
20.8988
20.1629
19.4366
18.7156
17.9975
17.2813
16.5669
15.8548
15.1452
14.4382
13.7333
13.0301
12.3277
11.6257
10.9236
10.2212
9.51822
8.81476
8.11082
7.40647
6.70177
5.9968
5.29163
4.5863
3.88086
3.17535
2.46978
1.76417
1.05853
0.352861
37.1625
32.048
29.2337
27.425
26.0913
25.0051
24.0603
23.2022
22.3991
21.6317
20.8869
20.1559
19.4327
18.7136
17.9966
17.281
16.5669
15.8549
15.1454
14.4384
13.7336
13.0303
12.328
11.6259
10.9238
10.2213
9.51833
8.81484
8.11088
7.4065
6.70179
5.99681
5.29163
4.5863
3.88086
3.17535
2.46978
1.76417
1.05853
0.352864
40.5211
33.0255
29.392
27.3351
25.9501
24.8745
23.9555
23.1231
22.3417
21.5911
20.859
20.1373
19.4207
18.7059
17.9915
17.2774
16.5642
15.8527
15.1437
14.4371
13.7328
13.03
12.3279
11.6261
10.9241
10.2216
9.51863
8.81511
8.1111
7.40668
6.70192
5.99691
5.2917
4.58635
3.8809
3.17537
2.46979
1.76418
1.05854
0.352872
44.0218
34.2706
29.7514
27.3654
25.8713
24.7714
23.859
23.0428
22.2788
21.544
20.825
20.1136
19.4045
18.6949
17.9837
17.2714
16.5591
15.8484
15.14
14.4344
13.731
13.029
12.3276
11.6262
10.9244
10.2221
9.51909
8.81553
8.11145
7.40696
6.70214
5.99707
5.29182
4.58644
3.88096
3.17541
2.46982
1.7642
1.05855
0.35288
47.2933
35.5541
30.2041
27.4779
25.8507
24.7052
23.7841
22.974
22.2213
21.4988
20.7913
20.0894
19.3877
18.683
17.9747
17.2639
16.5524
15.8423
15.1348
14.4304
13.7283
13.0275
12.327
11.6263
10.9248
10.2226
9.51968
8.81606
8.11191
7.40733
6.70243
5.99729
5.29198
4.58655
3.88103
3.17546
2.46985
1.76422
1.05857
0.352886
50.1579
36.742
30.6678
27.6289
25.8686
24.6696
23.7311
22.9201
22.1736
21.4599
20.7615
20.0678
19.3724
18.6719
17.9659
17.256
16.5449
15.8351
15.1286
14.4256
13.7251
13.0257
12.3263
11.6263
10.9253
10.2233
9.52034
8.81667
8.11243
7.40775
6.70275
5.99753
5.29216
4.58668
3.88112
3.17552
2.46989
1.76425
1.05858
0.352892
52.5211
37.7557
31.0874
27.7839
25.9051
24.6547
23.6962
22.8804
22.1365
21.4287
20.7372
20.0502
19.36
18.6627
17.9581
17.2487
16.5375
15.8279
15.1222
14.4206
13.7217
13.0239
12.3256
11.6264
10.9258
10.2239
9.52102
8.8173
8.11296
7.40817
6.70308
5.99778
5.29234
4.5868
3.88121
3.17559
2.46994
1.76427
1.0586
0.352896
54.3285
38.5476
31.4271
27.9183
25.9449
24.6513
23.6746
22.853
22.1097
21.4055
20.7191
20.037
19.3506
18.6556
17.952
17.2425
16.531
15.8214
15.1164
14.4161
13.7188
13.0223
12.3251
11.6265
10.9262
10.2245
9.52165
8.81786
8.11343
7.40855
6.70338
5.998
5.2925
4.58692
3.88129
3.17564
2.46997
1.76429
1.05861
0.352898
55.5484
39.089
31.6643
28.0159
25.977
24.6527
23.6623
22.8359
22.0923
21.3903
20.707
20.0282
19.3444
18.6508
17.9477
17.2381
16.5263
15.8166
15.1121
14.4128
13.7166
13.0211
12.3247
11.6266
10.9266
10.225
9.52213
8.81829
8.11379
7.40884
6.7036
5.99817
5.29262
4.58701
3.88135
3.17568
2.47
1.76431
1.05862
0.3529
56.1623
39.3635
31.786
28.067
25.9947
24.6544
23.6569
22.8277
22.0839
21.3828
20.701
20.0238
19.3413
18.6484
17.9455
17.2358
16.5238
15.8141
15.1098
14.4111
13.7155
13.0206
12.3245
11.6266
10.9268
10.2253
9.52239
8.81853
8.11399
7.409
6.70372
5.99825
5.29268
4.58705
3.88138
3.1757
2.47001
1.76432
1.05862
0.352901
56.1623
39.3635
31.786
28.067
25.9947
24.6544
23.6569
22.8277
22.0838
21.3828
20.701
20.0238
19.3413
18.6484
17.9455
17.2358
16.5238
15.8141
15.1098
14.4111
13.7155
13.0206
12.3245
11.6267
10.9268
10.2253
9.52239
8.81853
8.11399
7.409
6.70372
5.99826
5.29268
4.58705
3.88139
3.1757
2.47001
1.76432
1.05862
0.352901
55.5484
39.089
31.6643
28.0159
25.977
24.6526
23.6623
22.8359
22.0923
21.3903
20.707
20.0281
19.3444
18.6508
17.9477
17.2381
16.5263
15.8166
15.1121
14.4128
13.7166
13.0212
12.3247
11.6266
10.9266
10.225
9.52213
8.8183
8.1138
7.40885
6.7036
5.99817
5.29262
4.58701
3.88135
3.17568
2.47
1.76431
1.05862
0.3529
54.3285
38.5476
31.427
27.9182
25.9449
24.6512
23.6745
22.8529
22.1096
21.4055
20.719
20.0369
19.3506
18.6556
17.9519
17.2425
16.531
15.8214
15.1164
14.4161
13.7188
13.0223
12.3251
11.6265
10.9262
10.2245
9.52166
8.81787
8.11344
7.40856
6.70338
5.998
5.2925
4.58692
3.88129
3.17564
2.46997
1.76429
1.05861
0.352898
52.5211
37.7557
31.0874
27.7838
25.9051
24.6546
23.6961
22.8803
22.1364
21.4286
20.7372
20.0501
19.3599
18.6626
17.9581
17.2486
16.5374
15.8278
15.1222
14.4206
13.7217
13.0239
12.3257
11.6264
10.9258
10.2239
9.52104
8.81731
8.11297
7.40818
6.70309
5.99779
5.29234
4.58681
3.88121
3.17559
2.46994
1.76427
1.0586
0.352895
50.1579
36.742
30.6678
27.6289
25.8685
24.6696
23.7311
22.92
22.1735
21.4598
20.7614
20.0678
19.3724
18.6718
17.9658
17.256
16.5449
15.8351
15.1286
14.4256
13.7251
13.0257
12.3264
11.6263
10.9253
10.2233
9.52036
8.81669
8.11244
7.40776
6.70276
5.99754
5.29216
4.58668
3.88112
3.17553
2.4699
1.76425
1.05858
0.352891
47.2933
35.554
30.204
27.4778
25.8506
24.7052
23.784
22.9739
22.2213
21.4988
20.7912
20.0894
19.3876
18.6829
17.9746
17.2638
16.5524
15.8422
15.1348
14.4304
13.7283
13.0275
12.3271
11.6263
10.9249
10.2227
9.5197
8.81608
8.11192
7.40734
6.70244
5.9973
5.29198
4.58655
3.88104
3.17546
2.46985
1.76422
1.05857
0.352886
44.0217
34.2705
29.7513
27.3653
25.8712
24.7713
23.859
23.0427
22.2787
21.5439
20.8249
20.1135
19.4044
18.6948
17.9836
17.2713
16.5591
15.8483
15.14
14.4344
13.731
13.029
12.3276
11.6262
10.9245
10.2221
9.51912
8.81555
8.11147
7.40697
6.70215
5.99708
5.29183
4.58644
3.88096
3.17541
2.46982
1.7642
1.05855
0.352879
40.5209
33.0254
29.3919
27.335
25.95
24.8744
23.9554
23.123
22.3416
21.591
20.8589
20.1372
19.4206
18.7058
17.9915
17.2774
16.5642
15.8527
15.1437
14.4371
13.7328
13.03
12.328
11.6261
10.9241
10.2216
9.51865
8.81513
8.11111
7.40669
6.70193
5.99692
5.29171
4.58635
3.8809
3.17537
2.46979
1.76418
1.05854
0.352872
37.1623
32.0478
29.2335
27.4248
26.0912
25.005
24.0603
23.2021
22.3991
21.6316
20.8868
20.1558
19.4327
18.7136
17.9966
17.2809
16.5669
15.8549
15.1454
14.4384
13.7336
13.0303
12.328
11.626
10.9238
10.2213
9.51835
8.81486
8.11089
7.40651
6.7018
5.99682
5.29164
4.58631
3.88087
3.17535
2.46978
1.76417
1.05853
0.352864
34.811
31.6879
29.3504
27.6062
26.2411
25.1123
24.1329
23.2499
22.4299
21.651
20.8987
20.1628
19.4365
18.7155
17.9974
17.2812
16.5669
15.8548
15.1452
14.4382
13.7333
13.0301
12.3277
11.6257
10.9236
10.2212
9.51824
8.81478
8.11084
7.40648
6.70178
5.99681
5.29163
4.5863
3.88087
3.17535
2.46978
1.76417
1.05853
0.352861
32.4439
31.0092
29.269
27.6908
26.3477
25.2014
24.1989
23.2962
22.4614
21.6721
20.9125
20.1717
19.4422
18.719
17.9994
17.2822
16.5673
15.8548
15.1451
14.438
13.7332
13.03
12.3277
11.6257
10.9236
10.2212
9.51822
8.81476
8.11082
7.40647
6.70177
5.9968
5.29162
4.5863
3.88086
3.17535
2.46978
1.76417
1.05853
0.352864
33.1452
31.2022
29.2448
27.6158
26.2794
25.1523
24.1671
23.2771
22.4506
21.6664
20.9099
20.1708
19.4422
18.7195
18.0004
17.2835
16.5688
15.8564
15.1466
14.4394
13.7343
13.0308
12.3282
11.626
10.9238
10.2212
9.51818
8.81468
8.11072
7.40637
6.70167
5.99672
5.29156
4.58624
3.88082
3.17531
2.46975
1.76415
1.05852
0.35286
34.545
31.8764
29.4763
27.6494
26.2414
25.0972
24.1154
23.2349
22.4185
21.643
20.8934
20.1595
19.4347
18.7147
17.9972
17.2815
16.5674
15.8555
15.146
14.4391
13.7342
13.0309
12.3284
11.6263
10.924
10.2214
9.51836
8.81482
8.11082
7.40643
6.70172
5.99674
5.29157
4.58625
3.88082
3.17531
2.46975
1.76414
1.05851
0.352863
36.195
32.7849
29.8732
27.7808
26.253
25.0623
24.0679
23.189
22.3796
21.6123
20.8703
20.1429
19.4231
18.7066
17.9914
17.277
16.5638
15.8525
15.1436
14.4373
13.7332
13.0304
12.3284
11.6265
10.9243
10.2218
9.51871
8.81512
8.11107
7.40663
6.70186
5.99685
5.29164
4.5863
3.88085
3.17533
2.46976
1.76415
1.05852
0.352866
37.8364
33.7533
30.3447
27.9736
26.3067
25.0529
24.034
23.1493
22.3425
21.5812
20.846
20.1249
19.4101
18.6972
17.9842
17.2711
16.5586
15.8479
15.1398
14.4345
13.7313
13.0294
12.328
11.6266
10.9247
10.2222
9.51917
8.81555
8.11143
7.40691
6.70208
5.99701
5.29176
4.58638
3.88091
3.17537
2.46978
1.76417
1.05853
0.352869
39.3255
34.6692
30.8196
28.1893
26.385
25.0635
24.0144
23.1191
22.3113
21.5536
20.8237
20.108
19.3978
18.688
17.9768
17.2646
16.5526
15.8424
15.1351
14.4309
13.7289
13.0281
12.3276
11.6266
10.9251
10.2228
9.51972
8.81605
8.11185
7.40726
6.70235
5.99721
5.29191
4.58649
3.88098
3.17542
2.46982
1.76419
1.05854
0.35287
40.5807
35.4616
31.2469
28.3958
26.4699
25.0854
24.006
23.0981
22.2872
21.5312
20.8052
20.0939
19.3873
18.6799
17.9701
17.2585
16.5466
15.8367
15.1302
14.4272
13.7265
13.0268
12.3271
11.6267
10.9255
10.2233
9.52028
8.81656
8.11229
7.40761
6.70262
5.99742
5.29206
4.5866
3.88106
3.17547
2.46985
1.76421
1.05855
0.352871
41.5537
36.0864
31.5923
28.5691
26.5462
25.1098
24.0042
23.0847
22.2701
21.5146
20.7912
20.083
19.3792
18.6736
17.9646
17.2532
16.5414
15.8316
15.1258
14.4238
13.7243
13.0257
12.3267
11.6269
10.9259
10.2238
9.5208
8.81703
8.11269
7.40793
6.70287
5.99761
5.2922
4.58669
3.88113
3.17552
2.46988
1.76422
1.05856
0.352871
42.2157
36.5159
31.8335
28.693
26.603
25.1299
24.0054
23.0769
22.2592
21.5037
20.7818
20.0757
19.3737
18.6692
17.9607
17.2495
16.5376
15.8279
15.1225
14.4214
13.7227
13.0248
12.3265
11.627
10.9262
10.2242
9.52119
8.81739
8.11299
7.40817
6.70306
5.99775
5.2923
4.58677
3.88118
3.17555
2.4699
1.76424
1.05856
0.352871
42.5504
36.7342
31.9572
28.7573
26.633
25.1411
24.0067
23.0735
22.2539
21.4983
20.7771
20.072
19.371
18.667
17.9587
17.2475
16.5356
15.8259
15.1208
14.4201
13.7219
13.0244
12.3263
11.627
10.9264
10.2244
9.5214
8.81758
8.11315
7.4083
6.70316
5.99782
5.29236
4.58681
3.88121
3.17557
2.46991
1.76425
1.05856
0.352871
42.5504
36.7342
31.9572
28.7573
26.633
25.1411
24.0067
23.0735
22.2539
21.4982
20.7771
20.072
19.3709
18.667
17.9587
17.2475
16.5356
15.8259
15.1208
14.4201
13.7219
13.0244
12.3263
11.627
10.9264
10.2244
9.52141
8.81758
8.11316
7.40831
6.70316
5.99783
5.29236
4.58681
3.88121
3.17557
2.46991
1.76425
1.05856
0.352871
42.2157
36.5159
31.8335
28.693
26.6029
25.1299
24.0054
23.0769
22.2592
21.5036
20.7817
20.0757
19.3737
18.6692
17.9607
17.2494
16.5376
15.8278
15.1225
14.4214
13.7227
13.0248
12.3265
11.627
10.9262
10.2242
9.5212
8.81739
8.113
7.40818
6.70306
5.99775
5.2923
4.58677
3.88118
3.17555
2.4699
1.76424
1.05856
0.352871
41.5537
36.0864
31.5923
28.5691
26.5462
25.1098
24.0042
23.0846
22.27
21.5146
20.7911
20.083
19.3792
18.6736
17.9646
17.2532
16.5414
15.8316
15.1258
14.4238
13.7243
13.0257
12.3267
11.6269
10.9259
10.2238
9.52081
8.81704
8.1127
7.40794
6.70288
5.99761
5.2922
4.5867
3.88113
3.17552
2.46988
1.76422
1.05856
0.352871
40.5807
35.4616
31.2469
28.3957
26.4699
25.0853
24.0059
23.098
22.2872
21.5312
20.8052
20.0938
19.3873
18.6799
17.9701
17.2584
16.5466
15.8367
15.1302
14.4272
13.7265
13.0268
12.3271
11.6268
10.9255
10.2233
9.5203
8.81657
8.1123
7.40762
6.70263
5.99743
5.29206
4.5866
3.88106
3.17547
2.46985
1.76421
1.05855
0.352871
39.3255
34.6692
30.8195
28.1893
26.385
25.0635
24.0144
23.119
22.3113
21.5535
20.8237
20.108
19.3977
18.6879
17.9768
17.2646
16.5526
15.8424
15.1351
14.4309
13.7289
13.0281
12.3276
11.6267
10.9251
10.2228
9.51974
8.81606
8.11187
7.40727
6.70236
5.99722
5.29191
4.58649
3.88098
3.17542
2.46982
1.76419
1.05854
0.35287
37.8363
33.7533
30.3447
27.9736
26.3066
25.0528
24.0339
23.1492
22.3424
21.5811
20.8459
20.1248
19.41
18.6971
17.9842
17.271
16.5586
15.8479
15.1398
14.4345
13.7313
13.0294
12.328
11.6266
10.9247
10.2223
9.51919
8.81556
8.11144
7.40692
6.70209
5.99702
5.29177
4.58639
3.88091
3.17537
2.46979
1.76417
1.05853
0.352868
36.195
32.7848
29.8731
27.7807
26.2529
25.0622
24.0678
23.1889
22.3795
21.6122
20.8702
20.1428
19.423
18.7065
17.9914
17.277
16.5638
15.8524
15.1436
14.4374
13.7332
13.0304
12.3284
11.6265
10.9244
10.2218
9.51873
8.81514
8.11108
7.40664
6.70187
5.99685
5.29165
4.5863
3.88085
3.17533
2.46976
1.76415
1.05852
0.352865
34.5448
31.8762
29.4762
27.6493
26.2413
25.0971
24.1154
23.2348
22.4184
21.6429
20.8933
20.1594
19.4346
18.7146
17.9972
17.2814
16.5674
15.8555
15.146
14.4391
13.7343
13.0309
12.3285
11.6263
10.924
10.2214
9.51838
8.81483
8.11083
7.40644
6.70172
5.99675
5.29157
4.58625
3.88082
3.17531
2.46975
1.76414
1.05851
0.352862
33.1449
31.2019
29.2446
27.6156
26.2792
25.1522
24.167
23.277
22.4505
21.6664
20.9098
20.1707
19.4421
18.7195
18.0003
17.2835
16.5687
15.8564
15.1466
14.4394
13.7343
13.0308
12.3282
11.626
10.9238
10.2212
9.5182
8.8147
8.11074
7.40638
6.70168
5.99672
5.29156
4.58625
3.88082
3.17531
2.46975
1.76415
1.05852
0.35286
32.4435
31.0088
29.2687
27.6906
26.3475
25.2013
24.1988
23.2962
22.4614
21.672
20.9125
20.1717
19.4421
18.7189
17.9994
17.2822
16.5673
15.8548
15.1451
14.438
13.7332
13.03
12.3277
11.6257
10.9236
10.2212
9.51824
8.81478
8.11084
7.40648
6.70177
5.9968
5.29163
4.5863
3.88086
3.17535
2.46977
1.76417
1.05853
0.352864
30.5207
29.8573
28.7154
27.468
26.2817
25.2015
24.2223
23.3246
22.4876
21.6939
20.9298
20.185
19.4521
18.7261
18.0042
17.285
16.5685
15.855
15.1447
14.4374
13.7327
13.0297
12.3276
11.6258
10.9238
10.2214
9.51843
8.81495
8.11098
7.40659
6.70186
5.99687
5.29167
4.58633
3.88088
3.17536
2.46979
1.76417
1.05854
0.352871
30.6524
29.8858
28.6702
27.4053
26.2285
25.1643
24.1995
23.3121
22.4818
21.6918
20.9297
20.1858
19.4532
18.7275
18.0059
17.2872
16.5711
15.8578
15.1474
14.4399
13.7346
13.0311
12.3285
11.6263
10.924
10.2214
9.51829
8.81476
8.11077
7.40639
6.70169
5.99672
5.29155
4.58624
3.88081
3.1753
2.46974
1.76414
1.05851
0.352862
31.1702
30.2242
28.8255
27.4508
26.2226
25.1401
24.1723
23.2881
22.4626
21.6774
20.9193
20.1786
19.4485
18.7245
18.0041
17.2863
16.5708
15.8578
15.1478
14.4404
13.7353
13.0317
12.329
11.6267
10.9243
10.2215
9.51841
8.81481
8.11078
7.40638
6.70166
5.99669
5.29152
4.58621
3.88078
3.17528
2.46972
1.76413
1.0585
0.352861
31.9027
30.7435
29.112
27.5787
26.262
25.1364
24.1512
23.2625
22.4386
21.6573
20.9036
20.167
19.4403
18.7187
17.9999
17.283
16.5681
15.8557
15.1462
14.4394
13.7348
13.0317
12.3293
11.627
10.9247
10.2219
9.51871
8.81505
8.11097
7.40651
6.70175
5.99675
5.29156
4.58623
3.88079
3.17529
2.46972
1.76412
1.0585
0.352862
32.7009
31.3344
29.4638
27.7567
26.335
25.1529
24.1407
23.2413
22.4153
21.6362
20.8864
20.154
19.4308
18.7116
17.9943
17.2782
16.5638
15.8518
15.143
14.4372
13.7336
13.0312
12.3293
11.6274
10.9251
10.2224
9.51917
8.81544
8.11127
7.40675
6.70192
5.99687
5.29165
4.58629
3.88083
3.17531
2.46974
1.76413
1.0585
0.352862
33.4642
31.9159
29.8261
27.9529
26.4257
25.1835
24.14
23.2264
22.3957
21.6171
20.8703
20.1416
19.4218
18.7046
17.9884
17.2728
16.5585
15.8468
15.1389
14.4343
13.7319
13.0305
12.3293
11.6277
10.9257
10.223
9.51971
8.81591
8.11166
7.40705
6.70215
5.99704
5.29176
4.58637
3.88089
3.17535
2.46976
1.76414
1.05851
0.35286
34.129
32.4324
30.1574
28.14
26.5184
25.2202
24.1459
23.2173
22.3808
21.6014
20.8567
20.1312
19.4142
18.6985
17.9828
17.2674
16.5531
15.8413
15.1344
14.4313
13.7302
13.0298
12.3292
11.6281
10.9262
10.2236
9.52028
8.81641
8.11207
7.40737
6.7024
5.99722
5.29189
4.58646
3.88095
3.17539
2.46979
1.76416
1.05851
0.352858
34.6551
32.8465
30.4284
28.2973
26.5997
25.2551
24.1547
23.2126
22.3703
21.5897
20.8462
20.1232
19.4084
18.6935
17.9782
17.2628
16.5482
15.8364
15.1303
14.4286
13.7287
13.0293
12.3293
11.6285
10.9267
10.2241
9.52081
8.81686
8.11244
7.40766
6.70262
5.99739
5.29202
4.58655
3.88101
3.17543
2.46981
1.76417
1.05852
0.352855
35.0175
33.1343
30.6191
28.41
26.6593
25.282
24.1627
23.2106
22.3638
21.582
20.8391
20.1177
19.4043
18.69
17.9748
17.2594
16.5447
15.8328
15.1274
14.4266
13.7277
13.0289
12.3294
11.6288
10.9272
10.2246
9.52121
8.81721
8.11273
7.40789
6.70279
5.99751
5.29211
4.58661
3.88105
3.17546
2.46983
1.76418
1.05852
0.352853
35.202
33.2814
30.7173
28.4685
26.6908
25.2965
24.1673
23.2099
22.3607
21.5781
20.8356
20.1148
19.4022
18.6881
17.973
17.2576
16.5428
15.831
15.1259
14.4256
13.7271
13.0287
12.3294
11.629
10.9274
10.2248
9.52143
8.8174
8.11288
7.40801
6.70289
5.99758
5.29216
4.58665
3.88108
3.17547
2.46984
1.76419
1.05852
0.352852
35.202
33.2814
30.7173
28.4685
26.6908
25.2965
24.1673
23.2099
22.3607
21.5781
20.8356
20.1148
19.4022
18.6881
17.973
17.2576
16.5428
15.831
15.1259
14.4256
13.7271
13.0287
12.3294
11.629
10.9274
10.2248
9.52143
8.8174
8.11288
7.40801
6.70289
5.99758
5.29216
4.58665
3.88108
3.17547
2.46984
1.76419
1.05852
0.352852
35.0176
33.1343
30.6191
28.41
26.6593
25.2819
24.1626
23.2106
22.3638
21.5819
20.8391
20.1176
19.4043
18.69
17.9747
17.2594
16.5447
15.8328
15.1274
14.4266
13.7277
13.0289
12.3294
11.6288
10.9272
10.2246
9.52122
8.81721
8.11273
7.40789
6.7028
5.99752
5.29211
4.58661
3.88106
3.17546
2.46983
1.76418
1.05852
0.352853
34.6551
32.8465
30.4285
28.2973
26.5997
25.2551
24.1546
23.2126
22.3703
21.5897
20.8462
20.1231
19.4084
18.6935
17.9781
17.2628
16.5482
15.8364
15.1303
14.4286
13.7287
13.0293
12.3293
11.6285
10.9268
10.2242
9.52082
8.81687
8.11245
7.40767
6.70263
5.99739
5.29202
4.58655
3.88101
3.17543
2.46981
1.76417
1.05852
0.352855
34.129
32.4324
30.1575
28.14
26.5184
25.2201
24.1459
23.2173
22.3807
21.6014
20.8566
20.1312
19.4141
18.6984
17.9828
17.2674
16.553
15.8413
15.1344
14.4313
13.7302
13.0298
12.3293
11.6281
10.9262
10.2236
9.5203
8.81642
8.11208
7.40738
6.7024
5.99723
5.2919
4.58646
3.88095
3.17539
2.46979
1.76416
1.05851
0.352858
33.4643
31.9159
29.826
27.9528
26.4257
25.1835
24.1399
23.2263
22.3957
21.617
20.8702
20.1416
19.4217
18.7046
17.9883
17.2728
16.5585
15.8468
15.1389
14.4343
13.7319
13.0305
12.3293
11.6277
10.9257
10.223
9.51973
8.81592
8.11167
7.40706
6.70216
5.99705
5.29177
4.58637
3.88089
3.17535
2.46976
1.76414
1.05851
0.35286
32.7009
31.3344
29.4637
27.7567
26.3349
25.1529
24.1406
23.2413
22.4152
21.6361
20.8863
20.1539
19.4307
18.7116
17.9942
17.2782
16.5638
15.8518
15.143
14.4372
13.7336
13.0312
12.3293
11.6274
10.9251
10.2224
9.51919
8.81545
8.11129
7.40676
6.70193
5.99688
5.29165
4.58629
3.88083
3.17531
2.46974
1.76413
1.0585
0.352861
31.9027
30.7434
29.1119
27.5786
26.2619
25.1364
24.1512
23.2625
22.4385
21.6572
20.9035
20.1669
19.4402
18.7186
17.9998
17.2829
16.5681
15.8557
15.1462
14.4394
13.7348
13.0317
12.3293
11.6271
10.9247
10.2219
9.51873
8.81507
8.11098
7.40652
6.70176
5.99675
5.29156
4.58623
3.8808
3.17529
2.46972
1.76412
1.0585
0.352861
31.17
30.224
28.8253
27.4507
26.2225
25.14
24.1722
23.288
22.4625
21.6774
20.9192
20.1785
19.4484
18.7244
18.0041
17.2862
16.5707
15.8578
15.1478
14.4404
13.7353
13.0317
12.329
11.6267
10.9243
10.2216
9.51843
8.81483
8.1108
7.40639
6.70167
5.99669
5.29152
4.58621
3.88079
3.17528
2.46972
1.76413
1.0585
0.352861
30.6521
29.8855
28.6699
27.4052
26.2283
25.1642
24.1994
23.3121
22.4817
21.6918
20.9296
20.1857
19.4532
18.7275
18.0059
17.2871
16.571
15.8577
15.1474
14.4399
13.7347
13.0311
12.3285
11.6263
10.924
10.2214
9.51831
8.81477
8.11078
7.4064
6.70169
5.99672
5.29156
4.58624
3.88081
3.1753
2.46974
1.76414
1.05851
0.352861
30.5202
29.8569
28.715
27.4677
26.2815
25.2013
24.2223
23.3245
22.4875
21.6938
20.9297
20.1849
19.4521
18.7261
18.0041
17.285
16.5685
15.855
15.1447
14.4374
13.7327
13.0297
12.3276
11.6258
10.9238
10.2214
9.51845
8.81497
8.11099
7.4066
6.70187
5.99687
5.29167
4.58633
3.88088
3.17536
2.46978
1.76417
1.05854
0.35287
29.0977
28.7435
27.9967
27.0562
26.0665
25.0999
24.1821
23.3155
22.4931
21.7053
20.9429
20.1978
19.4633
18.7351
18.0106
17.2889
16.5702
15.8551
15.144
14.4365
13.732
13.0294
12.3276
11.626
10.9242
10.2218
9.51886
8.81533
8.11129
7.40683
6.70204
5.997
5.29177
4.5864
3.88093
3.17539
2.46981
1.76419
1.05855
0.352878
29.0595
28.7074
27.9399
26.9967
26.0173
25.0648
24.1598
23.3028
22.4867
21.7026
20.9421
20.1977
19.4637
18.736
18.0122
17.2914
16.5735
15.8589
15.1478
14.4399
13.7347
13.0313
12.3288
11.6266
10.9244
10.2217
9.51864
8.81504
8.111
7.40656
6.70181
5.9968
5.29161
4.58627
3.88083
3.17532
2.46975
1.76415
1.05851
0.352864
29.2067
28.8443
28.0165
27.0232
26.0152
25.0504
24.1423
23.2866
22.4734
21.6924
20.9346
20.1925
19.4603
18.7339
18.0111
17.2911
16.5738
15.8596
15.1488
14.4411
13.7359
13.0324
12.3297
11.6273
10.9248
10.222
9.51872
8.81504
8.11095
7.40649
6.70173
5.99673
5.29154
4.58622
3.88078
3.17528
2.46972
1.76412
1.0585
0.352861
29.5051