# vtk DataFile Version 2.0
I need something to put here
ASCII

DATASET STRUCTURED_GRID
DIMENSIONS 41 21 21
POINTS 18081 float
0.000000 0.000000 0.000000
0.100000 0.000000 0.000000
0.200000 0.000000 0.000000
0.300000 0.000000 0.000000
0.400000 0.000000 0.000000
0.500000 0.000000 0.000000
0.600000 0.000000 0.000000
0.700000 0.000000 0.000000
0.800000 0.000000 0.000000
0.900000 0.000000 0.000000
1.000000 0.000000 0.000000
1.100000 0.000000 0.000000
1.200000 0.000000 0.000000
1.300000 0.000000 0.000000
1.400000 0.000000 0.000000
1.500000 0.000000 0.000000
1.600000 0.000000 0.000000
1.700000 0.000000 0.000000
1.800000 0.000000 0.000000
1.900000 0.000000 0.000000
2.000000 0.000000 0.000000
2.100000 0.000000 0.000000
2.200000 0.000000 0.000000
2.300000 0.000000 0.000000
2.400000 0.000000 0.000000
2.500000 0.000000 0.000000
2.600000 0.000000 0.000000
2.700000 0.000000 0.000000
2.800000 0.000000 0.000000
2.900000 0.000000 0.000000
3.000000 0.000000 0.000000
3.100000 0.000000 0.000000
3.200000 0.000000 0.000000
3.300000 0.000000 0.000000
3.400000 0.000000 0.000000
3.500000 0.000000 0.000000
3.600000 0.000000 0.000000
3.700000 0.000000 0.000000
3.800000 0.000000 0.000000
3.900000 0.000000 0.000000
4.000000 0.000000 0.000000
0.000000 0.100000 0.000000
0.100000 0.100000 0.000000
0.200000 0.100000 0.000000
0.300000 0.100000 0.000000
0.400000 0.100000 0.000000
0.500000 0.100000 0.000000
0.600000 0.100000 0.000000
0.700000 0.100000 0.000000
0.800000 0.100000 0.000000
0.900000 0.100000 0.000000
1.000000 0.100000 0.000000
1.100000 0.100000 0.000000
1.200000 0.100000 0.000000
1.300000 0.100000 0.000000
1.400000 0.100000 0.000000
1.500000 0.100000 0.000000
1.600000 0.100000 0.000000
1.700000 0.100000 0.000000
1.800000 0.100000 0.000000
1.900000 0.100000 0.000000
2.000000 0.100000 0.000000
2.100000 0.100000 0.000000
2.200000 0.100000 0.000000
2.300000 0.100000 0.000000
2.400000 0.100000 0.000000
2.500000 0.100000 0.000000
2.600000 0.100000 0.000000
2.700000 0.100000 0.000000
2.800000 0.100000 0.000000
2.900000 0.100000 0.000000
3.000000 0.100000 0.000000
3.100000 0.100000 0.000000
3.200000 0.100000 0.000000
3.300000 0.100000 0.000000
3.400000 0.100000 0.000000
3.500000 0.100000 0.000000
3.600000 0.100000 0.000000
3.700000 0.100000 0.000000
3.800000 0.100000 0.000000
3.900000 0.100000 0.000000
4.000000 0.100000 0.000000
0.000000 0.200000 0.000000
0.100000 0.200000 0.000000
0.200000 0.200000 0.000000
0.300000 0.200000 0.000000
0.400000 0.200000 0.000000
0.500000 0.200000 0.000000
0.600000 0.200000 0.000000
0.700000 0.200000 0.000000
0.800000 0.200000 0.000000
0.900000 0.200000 0.000000
1.000000 0.200000 0.000000
1.100000 0.200000 0.000000
1.200000 0.200000 0.000000
1.300000 0.200000 0.000000
1.400000 0.200000 0.000000
1.500000 0.200000 0.000000
1.600000 0.200000 0.000000
1.700000 0.200000 0.000000
1.800000 0.200000 0.000000
1.900000 0.200000 0.000000
2.000000 0.200000 0.000000
2.100000 0.200000 0.000000
2.200000 0.200000 0.000000
2.300000 0.200000 0.000000
2.400000 0.200000 0.000000
2.500000 0.200000 0.000000
2.600000 0.200000 0.000000
2.700000 0.200000 0.000000
2.800000 0.200000 0.000000
2.900000 0.200000 0.000000
3.000000 0.200000 0.000000
3.100000 0.200000 0.000000
3.200000 0.200000 0.000000
3.300000 0.200000 0.000000
3.400000 0.200000 0.000000
3.500000 0.200000 0.000000
3.600000 0.200000 0.000000
3.700000 0.200000 0.000000
3.800000 0.200000 0.000000
3.900000 0.200000 0.000000
4.000000 0.200000 0.000000
0.000000 0.300000 0.000000
0.100000 0.300000 0.000000
0.200000 0.300000 0.000000
0.300000 0.300000 0.000000
0.400000 0.300000 0.000000
0.500000 0.300000 0.000000
0.600000 0.300000 0.000000
0.700000 0.300000 0.000000
0.800000 0.300000 0.000000
0.900000 0.300000 0.000000
1.000000 0.300000 0.000000
1.100000 0.300000 0.000000
1.200000 0.300000 0.000000
1.300000 0.300000 0.000000
1.400000 0.300000 0.000000
1.500000 0.300000 0.000000
1.600000 0.300000 0.000000
1.700000 0.300000 0.000000
1.800000 0.300000 0.000000
1.900000 0.300000 0.000000
2.000000 0.300000 0.000000
2.100000 0.300000 0.000000
2.200000 0.300000 0.000000
2.300000 0.300000 0.000000
2.400000 0.300000 0.000000
2.500000 0.300000 0.000000
2.600000 0.300000 0.000000
2.700000 0.300000 0.000000
2.800000 0.300000 0.000000
2.900000 0.300000 0.000000
3.000000 0.300000 0.000000
3.100000 0.300000 0.000000
3.200000 0.300000 0.000000
3.300000 0.300000 0.000000
3.400000 0.300000 0.000000
3.500000 0.300000 0.000000
3.600000 0.300000 0.000000
3.700000 0.300000 0.000000
3.800000 0.300000 0.000000
3.900000 0.300000 0.000000
4.000000 0.300000 0.000000
0.000000 0.400000 0.000000
0.100000 0.400000 0.000000
0.200000 0.400000 0.000000
0.300000 0.400000 0.000000
0.400000 0.400000 0.000000
0.500000 0.400000 0.000000
0.600000 0.400000 0.000000
0.700000 0.400000 0.000000
0.800000 0.400000 0.000000
0.900000 0.400000 0.000000
1.000000 0.400000 0.000000
1.100000 0.400000 0.000000
1.200000 0.400000 0.000000
1.300000 0.400000 0.000000
1.400000 0.400000 0.000000
1.500000 0.400000 0.000000
1.600000 0.400000 0.000000
1.700000 0.400000 0.000000
1.800000 0.400000 0.000000
1.900000 0.400000 0.000000
2.000000 0.400000 0.000000
2.100000 0.400000 0.000000
2.200000 0.400000 0.000000
2.300000 0.400000 0.000000
2.400000 0.400000 0.000000
2.500000 0.400000 0.000000
2.600000 0.400000 0.000000
2.700000 0.400000 0.000000
2.800000 0.400000 0.000000
2.900000 0.400000 0.000000
3.000000 0.400000 0.000000
3.100000 0.400000 0.000000
3.200000 0.400000 0.000000
3.300000 0.400000 0.000000
3.400000 0.400000 0.000000
3.500000 0.400000 0.000000
3.600000 0.400000 0.000000
3.700000 0.400000 0.000000
3.800000 0.400000 0.000000
3.900000 0.400000 0.000000
4.000000 0.400000 0.000000
0.000000 0.500000 0.000000
0.100000 0.500000 0.000000
0.200000 0.500000 0.000000
0.300000 0.500000 0.000000
0.400000 0.500000 0.000000
0.500000 0.500000 0.000000
0.600000 0.500000 0.000000
0.700000 0.500000 0.000000
0.800000 0.500000 0.000000
0.900000 0.500000 0.000000
1.000000 0.500000 0.000000
1.100000 0.500000 0.000000
1.200000 0.500000 0.000000
1.300000 0.500000 0.000000
1.400000 0.500000 0.000000
1.500000 0.500000 0.000000
1.600000 0.500000 0.000000
1.700000 0.500000 0.000000
1.800000 0.500000 0.000000
1.900000 0.500000 0.000000
2.000000 0.500000 0.000000
2.100000 0.500000 0.000000
2.200000 0.500000 0.000000
2.300000 0.500000 0.000000
2.400000 0.500000 0.000000
2.500000 0.500000 0.000000
2.600000 0.500000 0.000000
2.700000 0.500000 0.000000
2.800000 0.500000 0.000000
2.900000 0.500000 0.000000
3.000000 0.500000 0.000000
3.100000 0.500000 0.000000
3.200000 0.500000 0.000000
3.300000 0.500000 0.000000
3.400000 0.500000 0.000000
3.500000 0.500000 0.000000
3.600000 0.500000 0.000000
3.700000 0.500000 0.000000
3.800000 0.500000 0.000000
3.900000 0.500000 0.000000
4.000000 0.500000 0.000000
0.000000 0.600000 0.000000
0.100000 0.600000 0.000000
0.200000 0.600000 0.000000
0.300000 0.600000 0.000000
0.400000 0.600000 0.000000
0.500000 0.600000 0.000000
0.600000 0.600000 0.000000
0.700000 0.600000 0.000000
0.800000 0.600000 0.000000
0.900000 0.600000 0.000000
1.000000 0.600000 0.000000
1.100000 0.600000 0.000000
1.200000 0.600000 0.000000
1.300000 0.600000 0.000000
1.400000 0.600000 0.000000
1.500000 0.600000 0.000000
1.600000 0.600000 0.000000
1.700000 0.600000 0.000000
1.800000 0.600000 0.000000
1.900000 0.600000 0.000000
2.000000 0.600000 0.000000
2.100000 0.600000 0.000000
2.200000 0.600000 0.000000
2.300000 0.600000 0.000000
2.400000 0.600000 0.000000
2.500000 0.600000 0.000000
2.600000 0.600000 0.000000
2.700000 0.600000 0.000000
2.800000 0.600000 0.000000
2.900000 0.600000 0.000000
3.000000 0.600000 0.000000
3.100000 0.600000 0.000000
3.200000 0.600000 0.000000
3.300000 0.600000 0.000000
3.400000 0.600000 0.000000
3.500000 0.600000 0.000000
3.600000 0.600000 0.000000
3.700000 0.600000 0.000000
3.800000 0.600000 0.000000
3.900000 0.600000 0.000000
4.000000 0.600000 0.000000
0.000000 0.700000 0.000000
0.100000 0.700000 0.000000
0.200000 0.700000 0.000000
0.300000 0.700000 0.000000
0.400000 0.700000 0.000000
0.500000 0.700000 0.000000
0.600000 0.700000 0.000000
0.700000 0.700000 0.000000
0.800000 0.700000 0.000000
0.900000 0.700000 0.000000
1.000000 0.700000 0.000000
1.100000 0.700000 0.000000
1.200000 0.700000 0.000000
1.300000 0.700000 0.000000
1.400000 0.700000 0.000000
1.500000 0.700000 0.000000
1.600000 0.700000 0.000000
1.700000 0.700000 0.000000
1.800000 0.700000 0.000000
1.900000 0.700000 0.000000
2.000000 0.700000 0.000000
2.100000 0.700000 0.000000
2.200000 0.700000 0.000000
2.300000 0.700000 0.000000
2.400000 0.700000 0.000000
2.500000 0.700000 0.000000
2.600000 0.700000 0.000000
2.700000 0.700000 0.000000
2.800000 0.700000 0.000000
2.900000 0.700000 0.000000
3.000000 0.700000 0.000000
3.100000 0.700000 0.000000
3.200000 0.700000 0.000000
3.300000 0.700000 0.000000
3.400000 0.700000 0.000000
3.500000 0.700000 0.000000
3.600000 0.700000 0.000000
3.700000 0.700000 0.000000
3.800000 0.700000 0.000000
3.900000 0.700000 0.000000
4.000000 0.700000 0.000000
0.000000 0.800000 0.000000
0.100000 0.800000 0.000000
0.200000 0.800000 0.000000
0.300000 0.800000 0.000000
0.400000 0.800000 0.000000
0.500000 0.800000 0.000000
0.600000 0.800000 0.000000
0.700000 0.800000 0.000000
0.800000 0.800000 0.000000
0.900000 0.800000 0.000000
1.000000 0.800000 0.000000
1.100000 0.800000 0.000000
1.200000 0.800000 0.000000
1.300000 0.800000 0.000000
1.400000 0.800000 0.000000
1.500000 0.800000 0.000000
1.600000 0.800000 0.000000
1.700000 0.800000 0.000000
1.800000 0.800000 0.000000
1.900000 0.800000 0.000000
2.000000 0.800000 0.000000
2.100000 0.800000 0.000000
2.200000 0.800000 0.000000
2.300000 0.800000 0.000000
2.400000 0.800000 0.000000
2.500000 0.800000 0.000000
2.600000 0.800000 0.000000
2.700000 0.800000 0.000000
2.800000 0.800000 0.000000
2.900000 0.800000 0.000000
3.000000 0.800000 0.000000
3.100000 0.800000 0.000000
3.200000 0.800000 0.000000
3.300000 0.800000 0.000000
3.400000 0.800000 0.000000
3.500000 0.800000 0.000000
3.600000 0.800000 0.000000
[...]
CELL_DATA 16000
SCALARS pressure float 1
LOOKUP_TABLE default
35.2562
32.1333
29.7957
28.051
26.6845
25.5531
24.5694
23.6798
22.8503
22.0582
21.2883
20.5301
19.7767
19.0243
18.2714
17.5185
16.767
16.019
15.2763
14.5398
13.8099
13.0861
12.3675
11.6531
10.9418
10.2327
9.52515
8.81855
8.11254
7.40689
6.70142
5.99604
5.29069
4.58533
3.87995
3.17455
2.46912
1.76368
1.05822
0.352742
37.6072
32.493
29.6788
27.8696
26.5345
25.4458
24.4967
23.632
22.8195
22.0389
21.2765
20.5233
19.773
19.0225
18.2706
17.5182
16.767
16.0191
15.2763
14.5398
13.81
13.0862
12.3677
11.6533
10.942
10.2329
9.5253
8.81867
8.11264
7.40696
6.70148
5.99608
5.29072
4.58535
3.87997
3.17456
2.46913
1.76368
1.05822
0.352743
40.9657
33.4706
29.8373
27.78
26.3938
25.3157
24.3927
23.5541
22.7635
22.0001
21.2508
20.5068
19.7628
19.0162
18.2664
17.5148
16.7637
16.0156
15.2728
14.5366
13.8072
13.084
12.3661
11.6522
10.9413
10.2325
9.52507
8.81856
8.11261
7.40697
6.70151
5.99612
5.29075
4.58538
3.87999
3.17458
2.46915
1.76369
1.05822
0.352745
44.4667
34.716
30.1971
27.8109
26.3159
25.214
24.298
23.4761
22.7037
21.9566
21.2207
20.4871
19.7503
19.0079
18.26
17.5088
16.7573
16.0087
15.2658
14.53
13.8015
13.0795
12.3627
11.6498
10.9397
10.2315
9.52446
8.81823
8.11244
7.40691
6.7015
5.99614
5.29079
4.58542
3.88003
3.17461
2.46917
1.76371
1.05823
0.352748
47.7389
36.0002
30.6506
27.9245
26.2967
25.1497
24.2257
23.4108
22.6506
21.9167
21.1928
20.4688
19.7387
18.9998
18.2531
17.5014
16.7486
15.9989
15.2556
14.5204
13.7932
13.0729
12.3577
11.6463
10.9373
10.2299
9.52354
8.8177
8.11216
7.40678
6.70146
5.99615
5.29082
4.58546
3.88006
3.17464
2.46919
1.76373
1.05824
0.352752
50.6044
37.1891
31.1155
28.0769
26.3163
25.1165
24.176
23.3612
22.6082
21.8842
21.1702
20.4545
19.7299
18.9935
18.2468
17.4935
16.7385
15.987
15.243
14.5086
13.7831
13.0648
12.3517
11.642
10.9344
10.2281
9.52239
8.81703
8.11181
7.40661
6.7014
5.99615
5.29084
4.58549
3.8801
3.17468
2.46922
1.76375
1.05826
0.352757
52.9686
38.2038
31.5363
28.2333
26.3549
25.1042
24.1446
23.3261
22.577
21.8601
21.1539
20.4448
19.7244
18.9893
18.2416
17.4859
16.7282
15.9743
15.2296
14.4959
13.7722
13.0562
12.3453
11.6375
10.9314
10.2261
9.52119
8.81632
8.11142
7.40643
6.70133
5.99614
5.29087
4.58553
3.88014
3.17471
2.46925
1.76377
1.05827
0.352762
54.7772
38.9968
31.8771
28.3692
26.3965
25.1033
24.1263
23.3031
22.5557
21.8436
21.1431
20.4391
19.7217
18.987
18.2378
17.4795
16.7189
15.9627
15.2171
14.4841
13.7622
13.0483
12.3395
11.6334
10.9286
10.2243
9.52009
8.81568
8.11106
7.40625
6.70126
5.99613
5.29088
4.58556
3.88017
3.17474
2.46927
1.76378
1.05828
0.352767
55.9979
39.5391
32.1153
28.4679
26.4301
25.1066
24.1167
23.2894
22.5427
21.8336
21.1369
20.4362
19.7206
18.986
18.2353
17.4749
16.7119
15.9539
15.2076
14.4751
13.7545
13.0423
12.335
11.6303
10.9265
10.223
9.51925
8.81519
8.1108
7.40612
6.70121
5.99612
5.2909
4.58558
3.88019
3.17476
2.46929
1.7638
1.05829
0.35277
56.6123
39.8141
32.2375
28.5196
26.4486
25.1094
24.1126
23.2831
22.5366
21.8289
21.1341
20.435
19.7203
18.9856
18.2341
17.4724
16.7081
15.9491
15.2025
14.4702
13.7504
13.039
12.3326
11.6286
10.9254
10.2223
9.51881
8.81493
8.11066
7.40605
6.70118
5.99611
5.29091
4.58559
3.88021
3.17477
2.4693
1.76381
1.05829
0.352772
56.6123
39.8141
32.2375
28.5196
26.4486
25.1094
24.1126
23.2831
22.5366
21.8289
21.1341
20.435
19.7204
18.9857
18.2341
17.4725
16.7082
15.9492
15.2025
14.4703
13.7504
13.0391
12.3327
11.6286
10.9255
10.2223
9.51883
8.81495
8.11067
7.40606
6.70119
5.99612
5.29091
4.5856
3.88021
3.17477
2.4693
1.76381
1.05829
0.352772
55.9979
39.5391
32.1153
28.4679
26.4301
25.1066
24.1167
23.2894
22.5427
21.8336
21.1369
20.4362
19.7207
18.9861
18.2354
17.475
16.712
15.954
15.2077
14.4752
13.7546
13.0424
12.3351
11.6304
10.9266
10.2231
9.5193
8.81523
8.11083
7.40614
6.70122
5.99613
5.29091
4.58559
3.8802
3.17476
2.46929
1.7638
1.05829
0.35277
54.7772
38.9968
31.8771
28.3692
26.3965
25.1033
24.1263
23.3031
22.5558
21.8436
21.1432
20.4391
19.7218
18.9872
18.2379
17.4797
16.719
15.9629
15.2173
14.4843
13.7624
13.0485
12.3396
11.6335
10.9288
10.2244
9.52017
8.81574
8.11112
7.40629
6.70129
5.99615
5.2909
4.58557
3.88018
3.17474
2.46927
1.76379
1.05828
0.352766
52.9687
38.2038
31.5363
28.2333
26.3549
25.1042
24.1446
23.3261
22.577
21.8601
21.1539
20.4449
19.7245
18.9895
18.2418
17.4861
16.7284
15.9746
15.2298
14.4961
13.7724
13.0564
12.3455
11.6377
10.9316
10.2263
9.52129
8.81641
8.11149
7.40648
6.70137
5.99617
5.29089
4.58554
3.88015
3.17471
2.46925
1.76377
1.05827
0.352761
50.6044
37.1891
31.1154
28.0769
26.3163
25.1165
24.176
23.3612
22.6082
21.8843
21.1703
20.4546
19.73
18.9937
18.247
17.4937
16.7387
15.9872
15.2433
14.5088
13.7833
13.065
12.3519
11.6422
10.9346
10.2282
9.52252
8.81713
8.11188
7.40667
6.70145
5.99618
5.29087
4.58551
3.88011
3.17468
2.46922
1.76375
1.05826
0.352756
47.7389
36.0001
30.6506
27.9244
26.2967
25.1497
24.2257
23.4108
22.6506
21.9167
21.1929
20.4689
19.7388
19
18.2533
17.5016
16.7489
15.9991
15.2559
14.5207
13.7935
13.0731
12.358
11.6465
10.9375
10.2301
9.52367
8.8178
8.11225
7.40685
6.70151
5.99618
5.29084
4.58547
3.88007
3.17465
2.46919
1.76373
1.05824
0.35275
44.4666
34.7159
30.1971
27.8108
26.3159
25.2139
24.298
23.4761
22.7037
21.9566
21.2208
20.4872
19.7504
19.008
18.2602
17.5091
16.7576
16.009
15.2661
14.5303
13.8018
13.0798
12.3629
11.65
10.9399
10.2316
9.5246
8.81834
8.11253
7.40698
6.70155
5.99617
5.29081
4.58543
3.88003
3.17461
2.46917
1.76371
1.05823
0.352746
40.9656
33.4705
29.8372
27.7799
26.3937
25.3157
24.3927
23.5541
22.7636
22.0002
21.2508
20.5069
19.763
19.0163
18.2666
17.515
16.7639
16.0159
15.2731
14.5369
13.8075
13.0843
12.3663
11.6524
10.9415
10.2326
9.5252
8.81867
8.11269
7.40704
6.70155
5.99615
5.29077
4.58539
3.88
3.17458
2.46914
1.76369
1.05822
0.352742
37.607
32.4928
29.6786
27.8695
26.5345
25.4457
24.4967
23.632
22.8195
22.0389
21.2766
20.5234
19.7732
19.0226
18.2708
17.5185
16.7673
16.0193
15.2766
14.5401
13.8102
13.0865
12.3679
11.6535
10.9422
10.2331
9.52543
8.81877
8.11272
7.40702
6.70152
5.99611
5.29074
4.58536
3.87997
3.17456
2.46913
1.76368
1.05821
0.35274
35.2559
32.133
29.7955
28.0509
26.6844
25.553
24.5694
23.6798
22.8503
22.0582
21.2884
20.5302
19.7769
19.0245
18.2716
17.5187
16.7673
16.0193
15.2765
14.5401
13.8101
13.0863
12.3678
11.6533
10.942
10.2329
9.52528
8.81865
8.11262
7.40695
6.70146
5.99607
5.2907
4.58534
3.87996
3.17455
2.46912
1.76367
1.05821
0.352739
32.8886
31.4542
29.714
28.1354
26.7909
25.6421
24.6353
23.7261
22.8818
22.0793
21.3022
20.5391
19.7825
19.0278
18.2734
17.5195
16.7674
16.019
15.276
14.5394
13.8096
13.0859
12.3674
11.6531
10.9418
10.2328
9.5252
8.8186
8.11259
7.40693
6.70145
5.99607
5.29071
4.58534
3.87996
3.17456
2.46913
1.76368
1.05822
0.352742
33.5895
31.6469
29.6895
28.0599
26.7219
25.592
24.6023
23.7055
22.8693
22.0717
21.2976
20.5362
19.7807
19.0271
18.2736
17.5206
16.7693
16.0216
15.279
14.5426
13.8126
13.0885
12.3697
11.6549
10.9432
10.2338
9.52598
8.81915
8.11298
7.40719
6.70163
5.99618
5.29078
4.58539
3.87999
3.17457
2.46914
1.76368
1.05822
0.352742
34.9891
32.3211
29.921
28.0935
26.6839
25.5369
24.5506
23.6633
22.8372
22.0485
21.2814
20.5253
19.7736
19.0225
18.2706
17.5185
16.7678
16.0204
15.2781
14.5419
13.8122
13.0884
12.3697
11.6551
10.9435
10.2341
9.52625
8.81939
8.11317
7.40735
6.70175
5.99627
5.29085
4.58544
3.88002
3.1746
2.46915
1.76369
1.05822
0.352744
36.6393
33.2298
30.3182
28.2252
26.696
25.5027
24.504
23.6188
22.8
22.0198
21.2606
20.511
19.7641
19.0159
18.2656
17.5141
16.7634
16.0159
15.2736
14.5379
13.8088
13.0858
12.3679
11.6538
10.9427
10.2337
9.52605
8.81933
8.11319
7.4074
6.70182
5.99634
5.29091
4.58549
3.88006
3.17463
2.46918
1.76371
1.05823
0.352747
38.2812
34.1988
30.7904
28.4189
26.7507
25.4947
24.472
23.5815
22.7661
21.9924
21.2404
20.4971
19.7546
19.0091
18.2598
17.5082
16.7568
16.0087
15.2663
14.5311
13.803
13.0812
12.3644
11.6514
10.9411
10.2327
9.52547
8.81902
8.11306
7.40737
6.70184
5.99638
5.29096
4.58554
3.88011
3.17466
2.4692
1.76373
1.05824
0.352751
39.7713
35.1155
31.2662
28.6357
26.8305
25.5073
24.455
23.5546
22.739
21.9697
21.2234
20.4855
19.7469
19.0032
18.2541
17.5016
16.749
15.9997
15.257
14.5224
13.7955
13.0752
12.36
11.6483
10.939
10.2313
9.52464
8.81856
8.11282
7.40727
6.70182
5.99641
5.291
4.58558
3.88015
3.1747
2.46923
1.76375
1.05826
0.352755
41.0276
35.9091
31.6946
28.8434
26.9171
25.5313
24.4494
23.5373
22.7195
21.9527
21.2108
20.4772
19.7415
18.9988
18.2491
17.4953
16.7408
15.9901
15.2469
14.5129
13.7874
13.0688
12.3551
11.6448
10.9367
10.2298
9.52371
8.81802
8.11253
7.40714
6.70178
5.99642
5.29103
4.58562
3.88019
3.17473
2.46926
1.76377
1.05827
0.35276
42.0018
36.5349
32.0411
29.0181
26.995
25.5578
24.4504
23.5273
22.7067
21.9412
21.2023
20.4719
19.7383
18.9958
18.2453
17.4898
16.7335
15.9812
15.2375
14.5041
13.7799
13.0628
12.3507
11.6417
10.9345
10.2284
9.52284
8.81751
8.11226
7.40701
6.70174
5.99642
5.29106
4.58565
3.88022
3.17476
2.46928
1.76378
1.05828
0.352764
42.6647
36.9652
32.2832
29.143
27.053
25.5795
24.4537
23.5223
22.6991
21.9342
21.1973
20.469
19.7366
18.9941
18.2426
17.4858
16.7281
15.9745
15.2304
14.4973
13.7741
13.0582
12.3472
11.6392
10.9329
10.2273
9.52217
8.81711
8.11204
7.40691
6.7017
5.99642
5.29107
4.58568
3.88024
3.17478
2.4693
1.7638
1.05829
0.352767
42.9999
37.184
32.4074
29.2078
27.0838
25.5916
24.4561
23.5204
22.6957
21.931
21.1951
20.4677
19.7359
18.9933
18.2413
17.4837
16.7251
15.9709
15.2265
14.4937
13.771
13.0558
12.3454
11.6379
10.932
10.2268
9.52181
8.8169
8.11193
7.40685
6.70168
5.99642
5.29108
4.58569
3.88026
3.17479
2.46931
1.7638
1.05829
0.352769
42.9999
37.184
32.4074
29.2078
27.0838
25.5916
24.4561
23.5204
22.6957
21.931
21.1951
20.4677
19.7359
18.9933
18.2413
17.4838
16.7252
15.9709
15.2265
14.4937
13.771
13.0558
12.3454
11.6379
10.932
10.2268
9.52183
8.81692
8.11194
7.40686
6.70169
5.99642
5.29108
4.58569
3.88026
3.17479
2.46931
1.7638
1.05829
0.352769
42.6648
36.9652
32.2832
29.143
27.053
25.5795
24.4537
23.5223
22.6992
21.9342
21.1974
20.469
19.7367
18.9942
18.2427
17.4859
16.7281
15.9746
15.2305
14.4974
13.7742
13.0583
12.3473
11.6393
10.9329
10.2274
9.52222
8.81715
8.11207
7.40693
6.70172
5.99643
5.29108
4.58568
3.88025
3.17478
2.4693
1.7638
1.05829
0.352767
42.0018
36.5349
32.0412
29.0181
26.995
25.5578
24.4504
23.5273
22.7067
21.9412
21.2024
20.472
19.7384
18.9959
18.2454
17.4899
16.7337
15.9813
15.2377
14.5043
13.7801
13.063
12.3508
11.6418
10.9346
10.2285
9.52291
8.81757
8.1123
7.40705
6.70176
5.99644
5.29107
4.58567
3.88023
3.17477
2.46928
1.76379
1.05828
0.352763
41.0277
35.9091
31.6946
28.8434
26.9171
25.5313
24.4494
23.5373
22.7195
21.9527
21.2108
20.4773
19.7417
18.9989
18.2493
17.4954
16.741
15.9902
15.2471
14.5131
13.7876
13.069
12.3553
11.645
10.9368
10.2299
9.52381
8.8181
8.1126
7.40719
6.70182
5.99644
5.29105
4.58564
3.8802
3.17474
2.46926
1.76377
1.05827
0.352758
39.7713
35.1156
31.2662
28.6357
26.8305
25.5072
24.455
23.5546
22.739
21.9697
21.2235
20.4856
19.747
19.0033
18.2543
17.5018
16.7492
15.9999
15.2572
14.5226
13.7958
13.0755
12.3602
11.6485
10.9392
10.2315
9.52476
8.81865
8.11289
7.40733
6.70186
5.99644
5.29102
4.5856
3.88016
3.1747
2.46923
1.76375
1.05825
0.352753
38.2813
34.1988
30.7904
28.4188
26.7507
25.4946
24.472
23.5815
22.7661
21.9925
21.2404
20.4972
19.7548
19.0092
18.26
17.5084
16.7571
16.0089
15.2666
14.5313
13.8033
13.0815
12.3647
11.6516
10.9413
10.2328
9.5256
8.81912
8.11314
7.40743
6.70189
5.99642
5.29098
4.58555
3.88012
3.17467
2.4692
1.76373
1.05824
0.352748
36.6393
33.2298
30.3181
28.2251
26.6959
25.5026
24.504
23.6187
22.8001
22.0199
21.2607
20.5111
19.7642
19.0161
18.2658
17.5143
16.7636
16.0161
15.2739
14.5382
13.8091
13.0861
12.3681
11.6541
10.9429
10.2338
9.52618
8.81943
8.11327
7.40747
6.70187
5.99637
5.29093
4.5855
3.88007
3.17463
2.46918
1.76371
1.05823
0.352744
34.989
32.321
29.9209
28.0934
26.6838
25.5368
24.5506
23.6633
22.8373
22.0485
21.2814
20.5254
19.7737
19.0226
18.2708
17.5188
16.7681
16.0206
15.2783
14.5422
13.8124
13.0887
12.37
11.6553
10.9437
10.2343
9.52637
8.81949
8.11325
7.40741
6.70179
5.9963
5.29087
4.58545
3.88003
3.1746
2.46915
1.76369
1.05822
0.352741
33.5893
31.6467
29.6894
28.0598
26.7218
25.592
24.6023
23.7055
22.8693
22.0718
21.2976
20.5363
19.7809
19.0272
18.2738
17.5208
16.7696
16.0218
15.2793
14.5428
13.8128
13.0888
12.3699
11.6551
10.9434
10.234
9.52611
8.81925
8.11305
7.40725
6.70167
5.99621
5.29079
4.5854
3.87999
3.17457
2.46913
1.76368
1.05821
0.352739
32.8882
31.4538
29.7138
28.1353
26.7908
25.642
24.6353
23.7261
22.8818
22.0794
21.3023
20.5392
19.7826
19.028
18.2736
17.5197
16.7676
16.0192
15.2762
14.5397
13.8098
13.0861
12.3676
11.6533
10.942
10.2329
9.52532
8.81869
8.11266
7.40698
6.70149
5.99609
5.29072
4.58535
3.87996
3.17456
2.46912
1.76367
1.05821
0.352739
30.9654
30.3025
29.1607
27.913
26.7255
25.6429
24.6597
23.7557
22.9096
22.103
21.3216
20.5546
19.7944
19.0365
18.2791
17.5224
16.768
16.0179
15.2738
14.5369
13.8071
13.0838
12.3657
11.6519
10.941
10.2322
9.52487
8.81841
8.11249
7.40688
6.70144
5.99607
5.29072
4.58536
3.87998
3.17457
2.46914
1.76369
1.05822
0.352744
31.0966
30.3306
29.115
27.8495
26.6711
25.6041
24.6348
23.7407
22.9006
22.0974
21.3177
20.5516
19.7922
19.0353
18.2793
17.5243
16.7715
16.0227
15.2794
14.5427
13.8126
13.0886
12.3698
11.6551
10.9434
10.234
9.52618
8.81933
8.11312
7.40731
6.70172
5.99625
5.29083
4.58542
3.88001
3.17459
2.46915
1.76369
1.05822
0.352743
31.614
30.6687
29.27
27.8946
26.6647
25.5791
24.6067
23.7156
22.8804
22.0819
21.3062
20.5434
19.7865
19.0316
18.2771
17.5233
16.7714
16.0233
15.2805
14.5441
13.8142
13.0903
12.3713
11.6564
10.9446
10.235
9.52692
8.81989
8.11354
7.40762
6.70194
5.9964
5.29094
4.5855
3.88006
3.17462
2.46917
1.7637
1.05823
0.352745
32.3466
31.1881
29.5567
28.0226
26.7042
25.5757
24.586
23.6906
22.8571
22.0627
21.2917
20.5331
19.7794
19.0265
18.2732
17.52
16.7683
16.0203
15.2778
14.5419
13.8126
13.0892
12.3708
11.6563
10.9447
10.2352
9.52715
8.82013
8.11376
7.40781
6.7021
5.99653
5.29103
4.58557
3.88012
3.17466
2.46919
1.76372
1.05824
0.352747
33.1453
31.7795
29.9089
28.2012
26.7779
25.5932
24.5768
23.6712
22.8361
22.0444
21.2776
20.5232
19.7727
19.0214
18.2685
17.5151
16.7629
16.0142
15.2718
14.5366
13.8083
13.086
12.3686
11.6548
10.9438
10.2347
9.52696
8.82009
8.11381
7.40789
6.70219
5.99662
5.29111
4.58564
3.88017
3.1747
2.46922
1.76374
1.05825
0.352751
33.9096
32.3619
30.2721
28.3984
26.8699
25.6254
24.5782
23.659
22.82
22.0295
21.2662
20.5155
19.7676
19.017
18.2638
17.5094
16.7559
16.0061
15.2635
14.5292
13.8023
13.0814
12.3653
11.6526
10.9424
10.2339
9.52648
8.81987
8.11374
7.4079
6.70225
5.99669
5.29118
4.5857
3.88022
3.17474
2.46926
1.76376
1.05826
0.352756
34.5756
32.8794
30.6046
28.5867
26.9641
25.664
24.5867
23.6532
22.8092
22.0187
21.258
20.5105
19.7646
19.0138
18.2595
17.5038
16.7485
15.9969
15.2542
14.5208
13.7955
13.0763
12.3616
11.65
10.9407
10.2328
9.52587
8.81954
8.11359
7.40786
6.70227
5.99674
5.29124
4.58575
3.88027
3.17478
2.46929
1.76378
1.05827
0.352761
35.1028
33.2946
30.8766
28.7452
27.0468
25.7008
24.5979
23.6516
22.8026
22.0117
21.2528
20.5078
19.7633
19.0117
18.256
17.4988
16.7417
15.9883
15.2453
14.513
13.7891
13.0714
12.3581
11.6476
10.9391
10.2318
9.52526
8.81921
8.11343
7.40781
6.70227
5.99677
5.29128
4.5858
3.88031
3.17481
2.46931
1.7638
1.05828
0.352765
35.4663
33.5832
31.0682
28.8588
27.1077
25.7292
24.6078
23.6521
22.7992
22.0077
21.25
20.5065
19.7628
19.0103
18.2534
17.495
16.7366
15.9818
15.2386
14.5069
13.7842
13.0677
12.3553
11.6457
10.9378
10.231
9.52478
8.81894
8.1133
7.40776
6.70226
5.99679
5.29131
4.58583
3.88034
3.17484
2.46933
1.76381
1.05829
0.352769
35.6513
33.7309
31.1668
28.9179
27.1398
25.7445
24.6135
23.6528
22.7978
22.006
21.2487
20.5061
19.7626
19.0097
18.2521
17.493
16.7338
15.9783
15.2349
14.5037
13.7816
13.0657
12.3539
11.6447
10.9371
10.2306
9.52452
8.8188
8.11323
7.40773
6.70226
5.9968
5.29133
4.58584
3.88035
3.17485
2.46934
1.76382
1.0583
0.35277
35.6513
33.7309
31.1668
28.9179
27.1398
25.7445
24.6135
23.6528
22.7978
22.006
21.2488
20.5061
19.7626
19.0097
18.2521
17.4931
16.7339
15.9783
15.235
14.5037
13.7816
13.0657
12.3539
11.6447
10.9372
10.2306
9.52454
8.81881
8.11324
7.40774
6.70227
5.9968
5.29133
4.58585
3.88035
3.17485
2.46934
1.76382
1.0583
0.35277
35.4663
33.5833
31.0682
28.8588
27.1077
25.7292
24.6078
23.6521
22.7992
22.0077
21.25
20.5066
19.7628
19.0104
18.2535
17.4951
16.7367
15.9819
15.2387
14.507
13.7843
13.0678
12.3554
11.6458
10.9379
10.231
9.52482
8.81897
8.11332
7.40778
6.70228
5.9968
5.29132
4.58583
3.88034
3.17484
2.46933
1.76381
1.05829
0.352768
35.1029
33.2947
30.8767
28.7452
27.0468
25.7008
24.5979
23.6516
22.8026
22.0117
21.2529
20.5079
19.7634
19.0118
18.2561
17.4989
16.7418
15.9884
15.2455
14.5131
13.7893
13.0716
12.3582
11.6477
10.9392
10.2319
9.52533
8.81926
8.11347
7.40784
6.70229
5.99679
5.2913
4.58581
3.88032
3.17482
2.46931
1.7638
1.05828
0.352764
34.5756
32.8795
30.6046
28.5867
26.9641
25.664
24.5867
23.6532
22.8092
22.0187
21.258
20.5106
19.7647
19.014
18.2597
17.5039
16.7486
15.9971
15.2544
14.521
13.7957
13.0765
12.3617
11.6502
10.9408
10.2329
9.52596
8.81962
8.11365
7.40791
6.7023
5.99676
5.29126
4.58577
3.88028
3.17479
2.46929
1.76378
1.05827
0.352759
33.9096
32.362
30.2721
28.3984
26.8699
25.6254
24.5782
23.659
22.8201
22.0295
21.2662
20.5156
19.7677
19.0172
18.264
17.5096
16.7561
16.0063
15.2637
14.5294
13.8025
13.0817
12.3655
11.6528
10.9425
10.234
9.52659
8.81996
8.11381
7.40796
6.70229
5.99672
5.29121
4.58571
3.88023
3.17475
2.46926
1.76376
1.05826
0.352753
33.1453
31.7795
29.9089
28.2012
26.7779
25.5932
24.5767
23.6712
22.8361
22.0445
21.2777
20.5233
19.7728
19.0215
18.2687
17.5153
16.7631
16.0145
15.272
14.5368
13.8086
13.0863
12.3688
11.655
10.944
10.2349
9.52708
8.82019
8.11389
7.40795
6.70224
5.99665
5.29114
4.58565
3.88018
3.17471
2.46923
1.76374
1.05825
0.352748
32.3465
31.1881
29.5566
28.0225
26.7041
25.5757
24.586
23.6906
22.8571
22.0627
21.2918
20.5332
19.7795
19.0267
18.2734
17.5202
16.7685
16.0205
15.278
14.5421
13.8128
13.0895
12.371
11.6565
10.9448
10.2353
9.52727
8.82023
8.11384
7.40787
6.70214
5.99656
5.29105
4.58558
3.88012
3.17466
2.46919
1.76372
1.05823
0.352744
31.6139
30.6686
29.2699
27.8945
26.6646
25.5791
24.6067
23.7156
22.8804
22.0819
21.3063
20.5435
19.7867
19.0318
18.2773
17.5235
16.7717
16.0235
15.2808
14.5444
13.8145
13.0905
12.3716
11.6567
10.9448
10.2351
9.52705
8.81999
8.11362
7.40767
6.70198
5.99643
5.29095
4.58551
3.88007
3.17462
2.46917
1.7637
1.05822
0.352741
31.0964
30.3303
29.1148
27.8493
26.671
25.6041
24.6348
23.7407
22.9006
22.0975
21.3178
20.5517
19.7923
19.0355
18.2795
17.5245
16.7717
16.0229
15.2797
14.5429
13.8128
13.0888
12.37
11.6553
10.9436
10.2342
9.5263
8.81942
8.1132
7.40736
6.70176
5.99627
5.29084
4.58543
3.88002
3.17459
2.46914
1.76369
1.05822
0.35274
30.965
30.3021
29.1605
27.9128
26.7254
25.6428
24.6597
23.7557
22.9096
22.103
21.3217
20.5547
19.7945
19.0366
18.2792
17.5226
16.7682
16.0181
15.2741
14.5372
13.8074
13.084
12.366
11.6521
10.9412
10.2324
9.52498
8.81849
8.11255
7.40693
6.70147
5.99609
5.29073
4.58536
3.87998
3.17457
2.46913
1.76368
1.05821
0.352739
29.5428
29.1891
28.4427
27.502
26.5114
25.5428
24.6215
23.7491
22.9182
22.1182
21.3389
20.5715
19.8093
19.0482
18.287
17.5264
16.7684
16.0155
15.2698
14.5322
13.8026
13.0799
12.3627
11.6496
10.9394
10.2312
9.52423
8.81803
8.11228
7.40678
6.7014
5.99607
5.29073
4.58538
3.88
3.17459
2.46915
1.7637
1.05823
0.352746
29.504
29.1524
28.3851
27.4414
26.4606
25.5055
24.5963
23.7328
22.9074
22.1105
21.3326
20.5661
19.8049
19.0454
18.2865
17.5286
16.7732
16.0223
15.2778
14.5405
13.8103
13.0867
12.3683
11.654
10.9428
10.2337
9.52598
8.81925
8.11311
7.40734
6.70176
5.9963
5.29087
4.58546
3.88004
3.17461
2.46917
1.7637
1.05823
0.352745
29.6506
29.289
28.4613
27.4673
26.4576
25.4899
24.5773
23.7148
22.8921
22.098
21.3229
20.5587
19.7995
19.0418
18.2845
17.5281
16.774
16.0242
15.2804
14.5436
13.8137
13.0899
12.3712
11.6565
10.9448
10.2352
9.52716
8.82012
8.11374
7.40778
6.70207
5.99651
5.29102
4.58556
3.88011
3.17465
2.46919
1.76372