# vtk DataFile Version 2.0
I need something to put here
ASCII

DATASET STRUCTURED_GRID
DIMENSIONS 41 21 21
POINTS 18081 float
0.000000 0.000000 0.000000
0.100000 0.000000 0.000000
0.200000 0.000000 0.000000
0.300000 0.000000 0.000000
0.400000 0.000000 0.000000
0.500000 0.000000 0.000000
0.600000 0.000000 0.000000
0.700000 0.000000 0.000000
0.800000 0.000000 0.000000
0.900000 0.000000 0.000000
1.000000 0.000000 0.000000
1.100000 0.000000 0.000000
1.200000 0.000000 0.000000
1.300000 0.000000 0.000000
1.400000 0.000000 0.000000
1.500000 0.000000 0.000000
1.600000 0.000000 0.000000
1.700000 0.000000 0.000000
1.800000 0.000000 0.000000
1.900000 0.000000 0.000000
2.000000 0.000000 0.000000
2.100000 0.000000 0.000000
2.200000 0.000000 0.000000
2.300000 0.000000 0.000000
2.400000 0.000000 0.000000
2.500000 0.000000 0.000000
2.600000 0.000000 0.000000
2.700000 0.000000 0.000000
2.800000 0.000000 0.000000
2.900000 0.000000 0.000000
3.000000 0.000000 0.000000
3.100000 0.000000 0.000000
3.200000 0.000000 0.000000
3.300000 0.000000 0.000000
3.400000 0.000000 0.000000
3.500000 0.000000 0.000000
3.600000 0.000000 0.000000
3.700000 0.000000 0.000000
3.800000 0.000000 0.000000
3.900000 0.000000 0.000000
4.000000 0.000000 0.000000
0.000000 0.100000 0.000000
0.100000 0.100000 0.000000
0.200000 0.100000 0.000000
0.300000 0.100000 0.000000
0.400000 0.100000 0.000000
0.500000 0.100000 0.000000
0.600000 0.100000 0.000000
0.700000 0.100000 0.000000
0.800000 0.100000 0.000000
0.900000 0.100000 0.000000
1.000000 0.100000 0.000000
1.100000 0.100000 0.000000
1.200000 0.100000 0.000000
1.300000 0.100000 0.000000
1.400000 0.100000 0.000000
1.500000 0.100000 0.000000
1.600000 0.100000 0.000000
1.700000 0.100000 0.000000
1.800000 0.100000 0.000000
1.900000 0.100000 0.000000
2.000000 0.100000 0.000000
2.100000 0.100000 0.000000
2.200000 0.100000 0.000000
2.300000 0.100000 0.000000
2.400000 0.100000 0.000000
2.500000 0.100000 0.000000
2.600000 0.100000 0.000000
2.700000 0.100000 0.000000
2.800000 0.100000 0.000000
2.900000 0.100000 0.000000
3.000000 0.100000 0.000000
3.100000 0.100000 0.000000
3.200000 0.100000 0.000000
3.300000 0.100000 0.000000
3.400000 0.100000 0.000000
3.500000 0.100000 0.000000
3.600000 0.100000 0.000000
3.700000 0.100000 0.000000
3.800000 0.100000 0.000000
3.900000 0.100000 0.000000
4.000000 0.100000 0.000000
0.000000 0.200000 0.000000
0.100000 0.200000 0.000000
0.200000 0.200000 0.000000
0.300000 0.200000 0.000000
0.400000 0.200000 0.000000
0.500000 0.200000 0.000000
0.600000 0.200000 0.000000
0.700000 0.200000 0.000000
0.800000 0.200000 0.000000
0.900000 0.200000 0.000000
1.000000 0.200000 0.000000
1.100000 0.200000 0.000000
1.200000 0.200000 0.000000
1.300000 0.200000 0.000000
1.400000 0.200000 0.000000
1.500000 0.200000 0.000000
1.600000 0.200000 0.000000
1.700000 0.200000 0.000000
1.800000 0.200000 0.000000
1.900000 0.200000 0.000000
2.000000 0.200000 0.000000
2.100000 0.200000 0.000000
2.200000 0.200000 0.000000
2.300000 0.200000 0.000000
2.400000 0.200000 0.000000
2.500000 0.200000 0.000000
2.600000 0.200000 0.000000
2.700000 0.200000 0.000000
2.800000 0.200000 0.000000
2.900000 0.200000 0.000000
3.000000 0.200000 0.000000
3.100000 0.200000 0.000000
3.200000 0.200000 0.000000
3.300000 0.200000 0.000000
3.400000 0.200000 0.000000
3.500000 0.200000 0.000000
3.600000 0.200000 0.000000
3.700000 0.200000 0.000000
3.800000 0.200000 0.000000
3.900000 0.200000 0.000000
4.000000 0.200000 0.000000
0.000000 0.300000 0.000000
0.100000 0.300000 0.000000
0.200000 0.300000 0.000000
0.300000 0.300000 0.000000
0.400000 0.300000 0.000000
0.500000 0.300000 0.000000
0.600000 0.300000 0.000000
0.700000 0.300000 0.000000
0.800000 0.300000 0.000000
0.900000 0.300000 0.000000
1.000000 0.300000 0.000000
1.100000 0.300000 0.000000
1.200000 0.300000 0.000000
1.300000 0.300000 0.000000
1.400000 0.300000 0.000000
1.500000 0.300000 0.000000
1.600000 0.300000 0.000000
1.700000 0.300000 0.000000
1.800000 0.300000 0.000000
1.900000 0.300000 0.000000
2.000000 0.300000 0.000000
2.100000 0.300000 0.000000
2.200000 0.300000 0.000000
2.300000 0.300000 0.000000
2.400000 0.300000 0.000000
2.500000 0.300000 0.000000
2.600000 0.300000 0.000000
2.700000 0.300000 0.000000
2.800000 0.300000 0.000000
2.900000 0.300000 0.000000
3.000000 0.300000 0.000000
3.100000 0.300000 0.000000
3.200000 0.300000 0.000000
3.300000 0.300000 0.000000
3.400000 0.300000 0.000000
3.500000 0.300000 0.000000
3.600000 0.300000 0.000000
3.700000 0.300000 0.000000
3.800000 0.300000 0.000000
3.900000 0.300000 0.000000
4.000000 0.300000 0.000000
0.000000 0.400000 0.000000
0.100000 0.400000 0.000000
0.200000 0.400000 0.000000
0.300000 0.400000 0.000000
0.400000 0.400000 0.000000
0.500000 0.400000 0.000000
0.600000 0.400000 0.000000
0.700000 0.400000 0.000000
0.800000 0.400000 0.000000
0.900000 0.400000 0.000000
1.000000 0.400000 0.000000
1.100000 0.400000 0.000000
1.200000 0.400000 0.000000
1.300000 0.400000 0.000000
1.400000 0.400000 0.000000
1.500000 0.400000 0.000000
1.600000 0.400000 0.000000
1.700000 0.400000 0.000000
1.800000 0.400000 0.000000
1.900000 0.400000 0.000000
2.000000 0.400000 0.000000
2.100000 0.400000 0.000000
2.200000 0.400000 0.000000
2.300000 0.400000 0.000000
2.400000 0.400000 0.000000
2.500000 0.400000 0.000000
2.600000 0.400000 0.000000
2.700000 0.400000 0.000000
2.800000 0.400000 0.000000
2.900000 0.400000 0.000000
3.000000 0.400000 0.000000
3.100000 0.400000 0.000000
3.200000 0.400000 0.000000
3.300000 0.400000 0.000000
3.400000 0.400000 0.000000
3.500000 0.400000 0.000000
3.600000 0.400000 0.000000
3.700000 0.400000 0.000000
3.800000 0.400000 0.000000
3.900000 0.400000 0.000000
4.000000 0.400000 0.000000
0.000000 0.500000 0.000000
0.100000 0.500000 0.000000
0.200000 0.500000 0.000000
0.300000 0.500000 0.000000
0.400000 0.500000 0.000000
0.500000 0.500000 0.000000
0.600000 0.500000 0.000000
0.700000 0.500000 0.000000
0.800000 0.500000 0.000000
0.900000 0.500000 0.000000
1.000000 0.500000 0.000000
1.100000 0.500000 0.000000
1.200000 0.500000 0.000000
1.300000 0.500000 0.000000
1.400000 0.500000 0.000000
1.500000 0.500000 0.000000
1.600000 0.500000 0.000000
1.700000 0.500000 0.000000
1.800000 0.500000 0.000000
1.900000 0.500000 0.000000
2.000000 0.500000 0.000000
2.100000 0.500000 0.000000
2.200000 0.500000 0.000000
2.300000 0.500000 0.000000
2.400000 0.500000 0.000000
2.500000 0.500000 0.000000
2.600000 0.500000 0.000000
2.700000 0.500000 0.000000
2.800000 0.500000 0.000000
2.900000 0.500000 0.000000
3.000000 0.500000 0.000000
3.100000 0.500000 0.000000
3.200000 0.500000 0.000000
3.300000 0.500000 0.000000
3.400000 0.500000 0.000000
3.500000 0.500000 0.000000
3.600000 0.500000 0.000000
3.700000 0.500000 0.000000
3.800000 0.500000 0.000000
3.900000 0.500000 0.000000
4.000000 0.500000 0.000000
0.000000 0.600000 0.000000
0.100000 0.600000 0.000000
0.200000 0.600000 0.000000
0.300000 0.600000 0.000000
0.400000 0.600000 0.000000
0.500000 0.600000 0.000000
0.600000 0.600000 0.000000
0.700000 0.600000 0.000000
0.800000 0.600000 0.000000
0.900000 0.600000 0.000000
1.000000 0.600000 0.000000
1.100000 0.600000 0.000000
1.200000 0.600000 0.000000
1.300000 0.600000 0.000000
1.400000 0.600000 0.000000
1.500000 0.600000 0.000000
1.600000 0.600000 0.000000
1.700000 0.600000 0.000000
1.800000 0.600000 0.000000
1.900000 0.600000 0.000000
2.000000 0.600000 0.000000
2.100000 0.600000 0.000000
2.200000 0.600000 0.000000
2.300000 0.600000 0.000000
2.400000 0.600000 0.000000
2.500000 0.600000 0.000000
2.600000 0.600000 0.000000
2.700000 0.600000 0.000000
2.800000 0.600000 0.000000
2.900000 0.600000 0.000000
3.000000 0.600000 0.000000
3.100000 0.600000 0.000000
3.200000 0.600000 0.000000
3.300000 0.600000 0.000000
3.400000 0.600000 0.000000
3.500000 0.600000 0.000000
3.600000 0.600000 0.000000
3.700000 0.600000 0.000000
3.800000 0.600000 0.000000
3.900000 0.600000 0.000000
4.000000 0.600000 0.000000
0.000000 0.700000 0.000000
0.100000 0.700000 0.000000
0.200000 0.700000 0.000000
0.300000 0.700000 0.000000
0.400000 0.700000 0.000000
0.500000 0.700000 0.000000
0.600000 0.700000 0.000000
0.700000 0.700000 0.000000
0.800000 0.700000 0.000000
0.900000 0.700000 0.000000
1.000000 0.700000 0.000000
1.100000 0.700000 0.000000
1.200000 0.700000 0.000000
1.300000 0.700000 0.000000
1.400000 0.700000 0.000000
1.500000 0.700000 0.000000
1.600000 0.700000 0.000000
1.700000 0.700000 0.000000
1.800000 0.700000 0.000000
1.900000 0.700000 0.000000
2.000000 0.700000 0.000000
2.100000 0.700000 0.000000
2.200000 0.700000 0.000000
2.300000 0.700000 0.000000
2.400000 0.700000 0.000000
2.500000 0.700000 0.000000
2.600000 0.700000 0.000000
2.700000 0.700000 0.000000
2.800000 0.700000 0.000000
2.900000 0.700000 0.000000
3.000000 0.700000 0.000000
3.100000 0.700000 0.000000
3.200000 0.700000 0.000000
3.300000 0.700000 0.000000
3.400000 0.700000 0.000000
3.500000 0.700000 0.000000
3.600000 0.700000 0.000000
3.700000 0.700000 0.000000
3.800000 0.700000 0.000000
3.900000 0.700000 0.000000
4.000000 0.700000 0.000000
0.000000 0.800000 0.000000
0.100000 0.800000 0.000000
0.200000 0.800000 0.000000
0.300000 0.800000 0.000000
0.400000 0.800000 0.000000
0.500000 0.800000 0.000000
0.600000 0.800000 0.000000
0.700000 0.800000 0.000000
0.800000 0.800000 0.000000
0.900000 0.800000 0.000000
1.000000 0.800000 0.000000
1.100000 0.800000 0.000000
1.200000 0.800000 0.000000
1.300000 0.800000 0.000000
1.400000 0.800000 0.000000
1.500000 0.800000 0.000000
1.600000 0.800000 0.000000
1.700000 0.800000 0.000000
1.800000 0.800000 0.000000
1.900000 0.800000 0.000000
2.000000 0.800000 0.000000
2.100000 0.800000 0.000000
2.200000 0.800000 0.000000
2.300000 0.800000 0.000000
2.400000 0.800000 0.000000
2.500000 0.800000 0.000000
2.600000 0.800000 0.000000
2.700000 0.800000 0.000000
2.800000 0.800000 0.000000
2.900000 0.800000 0.000000
3.000000 0.800000 0.000000
3.100000 0.800000 0.000000
3.200000 0.800000 0.000000
3.300000 0.800000 0.000000
3.400000 0.800000 0.000000
3.500000 0.800000 0.000000
3.600000 0.800000 0.000000
[...]
CELL_DATA 16000
SCALARS pressure float 1
LOOKUP_TABLE default
38.237
35.1159
32.7788
31.0304
29.654
28.5038
27.4891
26.5523
25.6546
24.7686
23.8748
22.9602
22.0186
21.0501
20.0608
19.0612
18.0638
17.081
16.1235
15.1989
14.3104
13.4579
12.6382
11.8468
11.0785
10.3282
9.59143
8.86459
8.14477
7.4298
6.71807
6.00847
5.30021
4.59275
3.88577
3.17905
2.47245
1.76593
1.05946
0.353075
40.587
35.4752
32.6615
30.8488
29.5038
28.3962
27.4162
26.5045
25.6241
24.7499
23.8639
22.9545
22.0159
21.049
20.0603
19.0608
18.0631
17.0801
16.1225
15.1979
14.3096
13.4574
12.6381
11.847
11.0788
10.3286
9.59187
8.86502
8.14517
7.43014
6.71836
6.0087
5.30038
4.59289
3.88588
3.17912
2.47251
1.76596
1.05947
0.353062
43.9453
36.4535
32.8214
30.7613
29.3661
28.2706
27.3184
26.4349
25.5788
24.7239
23.8522
22.952
22.0179
21.0513
20.0602
19.0564
18.0541
17.067
16.1068
15.1813
14.2938
13.4434
12.6264
11.8378
11.0719
10.3236
9.58845
8.86273
8.14368
7.42922
6.71782
6.00841
5.30025
4.59284
3.88588
3.17915
2.47253
1.76598
1.05947
0.353036
47.4482
37.7014
33.1847
30.797
29.2949
28.178
27.2363
26.3735
25.5399
24.7052
23.8493
22.9591
22.0284
21.0593
20.0612
19.0483
18.0365
17.0414
16.0761
15.1489
14.2628
13.4161
12.6038
11.8199
11.0584
10.3138
9.5815
8.85797
8.14053
7.42719
6.71656
6.00766
5.29983
4.59263
3.88579
3.17912
2.47254
1.76599
1.05946
0.353016
50.725
38.9904
33.6441
30.9181
29.2858
28.1275
27.1825
26.3325
25.5174
24.7014
23.8609
22.9798
22.0502
21.0745
20.0644
19.0371
18.0109
17.0038
16.0309
15.1016
14.218
13.3767
12.5713
11.7944
11.0392
10.2997
9.57157
8.85116
8.13598
7.42424
6.7147
6.00653
5.29918
4.59228
3.88562
3.17906
2.47252
1.76599
1.05946
0.353008
53.5973
40.1862
34.1167
31.0802
29.3183
28.1116
27.1559
26.3131
25.513
24.7139
23.8875
23.0141
22.0831
21.0968
20.0701
19.0238
17.979
16.9567
15.9745
15.0428
14.1626
13.3284
12.5317
11.7634
11.0159
10.2829
9.55966
8.84298
8.13051
7.42068
6.71246
6.00517
5.29838
4.59184
3.8854
3.17896
2.47249
1.76599
1.05947
0.353013
55.9695
41.2089
34.5464
31.2475
29.3709
28.118
27.1496
26.3108
25.5228
24.7385
23.9249
23.0578
22.1232
21.1236
20.0777
19.0099
17.9445
16.9052
15.913
14.979
14.103
13.2768
12.4896
11.7307
10.9914
10.2651
9.54718
8.83443
8.1248
7.41697
6.71011
6.00373
5.29754
4.59138
3.88516
3.17886
2.47246
1.76599
1.05948
0.353026
57.7859
42.0097
34.8958
31.3936
29.4258
28.1347
27.1547
26.3184
25.5401
24.768
23.965
23.1027
22.1639
21.1507
20.0857
18.9972
17.9121
16.8566
15.8549
14.919
14.0471
13.2287
12.4506
11.7005
10.9689
10.2489
9.5358
8.82665
8.11961
7.4136
6.70798
6.00243
5.29677
4.59095
3.88495
3.17877
2.47243
1.76599
1.0595
0.353043
59.0128
42.5581
35.1407
31.5004
29.4697
28.1518
27.1633
26.3286
25.5572
24.7938
23.9987
23.1397
22.1969
21.1726
20.0925
18.9876
17.887
16.8188
15.8097
14.8724
14.0039
13.1916
12.4206
11.6774
10.9517
10.2365
9.52715
8.82075
8.11568
7.41104
6.70637
6.00144
5.2962
4.59063
3.88478
3.17869
2.47241
1.766
1.05951
0.353058
59.6307
42.8365
35.2666
31.5566
29.4938
28.1621
27.1693
26.3353
25.5675
24.8089
24.0179
23.1605
22.2155
21.185
20.0964
18.9825
17.8734
16.7982
15.7851
14.847
13.9803
13.1715
12.4044
11.6649
10.9425
10.2299
9.52251
8.81759
8.11359
7.40969
6.70551
6.00092
5.29589
4.59047
3.8847
3.17866
2.4724
1.766
1.05952
0.353066
59.6308
42.8365
35.2666
31.5566
29.4938
28.1621
27.1693
26.3354
25.5676
24.809
24.018
23.1607
22.2157
21.1852
20.0967
18.9828
17.8736
16.7985
15.7853
14.8472
13.9806
13.1717
12.4045
11.665
10.9426
10.23
9.52259
8.81766
8.11364
7.40973
6.70554
6.00094
5.29591
4.59048
3.8847
3.17866
2.4724
1.766
1.05952
0.353065
59.0129
42.5582
35.1407
31.5005
29.4697
28.1518
27.1634
26.3287
25.5573
24.7941
23.9991
23.1401
22.1975
21.1732
20.0932
18.9883
17.8877
16.8195
15.8104
14.8731
14.0045
13.1922
12.4211
11.6778
10.9521
10.2368
9.52739
8.82094
8.11583
7.41116
6.70646
6.00151
5.29624
4.59066
3.8848
3.1787
2.47242
1.766
1.05951
0.353055
57.786
42.0098
34.8959
31.3937
29.4259
28.1348
27.1548
26.3186
25.5404
24.7683
23.9656
23.1034
22.1647
21.1517
20.0868
18.9983
17.9132
16.8577
15.856
14.9201
14.0481
13.2296
12.4514
11.7012
10.9695
10.2494
9.53619
8.82696
8.11985
7.41378
6.70812
6.00253
5.29685
4.591
3.88498
3.17878
2.47244
1.76599
1.05949
0.353038
55.9696
41.2091
34.5465
31.2476
29.371
28.1182
27.1498
26.3111
25.5232
24.739
23.9256
23.0587
22.1244
21.1249
20.0791
19.0113
17.9459
16.9066
15.9143
14.9803
14.1042
13.2779
12.4905
11.7315
10.9921
10.2657
9.54768
8.83483
8.12511
7.41721
6.71029
6.00386
5.29763
4.59144
3.8852
3.17888
2.47247
1.76599
1.05947
0.353019
53.5974
40.1864
34.1169
31.0804
29.3184
28.1118
27.1562
26.3135
25.5134
24.7145
23.8883
23.0152
22.0844
21.0982
20.0717
19.0253
17.9806
16.9582
15.9761
15.0443
14.164
13.3297
12.5328
11.7644
11.0168
10.2836
9.56024
8.84345
8.13088
7.42096
6.71267
6.00531
5.29848
4.59191
3.88544
3.17898
2.4725
1.76598
1.05946
0.353004
50.7251
38.9906
33.6442
30.9182
29.286
28.1277
27.1828
26.3329
25.5179
24.7021
23.8618
22.9809
22.0516
21.076
20.0661
19.0388
18.0126
17.0054
16.0326
15.1032
14.2195
13.3781
12.5725
11.7955
11.0401
10.3005
9.5722
8.85166
8.13637
7.42454
6.71492
6.00669
5.29929
4.59235
3.88566
3.17907
2.47252
1.76598
1.05945
0.352998
47.4484
37.7015
33.1849
30.7972
29.2951
28.1782
27.2366
26.3739
25.5404
24.7059
23.8502
22.9603
22.0298
21.0609
20.0629
19.0501
18.0383
17.0431
16.0777
15.1505
14.2644
13.4175
12.605
11.8211
11.0594
10.3146
9.58214
8.85849
8.14093
7.42749
6.71678
6.00781
5.29993
4.59269
3.88582
3.17913
2.47253
1.76597
1.05945
0.353005
43.9455
36.4536
32.8215
30.7615
29.3663
28.2708
27.3187
26.4353
25.5794
24.7247
23.8532
22.9532
22.0193
21.0529
20.0619
19.0582
18.0559
17.0688
16.1085
15.1829
14.2953
13.4447
12.6277
11.8389
11.0729
10.3244
9.58908
8.86323
8.14407
7.42951
6.71803
6.00855
5.30033
4.59289
3.8859
3.17915
2.47252
1.76596
1.05945
0.353023
40.587
35.4752
32.6616
30.8489
29.504
28.3964
27.4166
26.5049
25.6247
24.7507
23.8649
22.9557
22.0172
21.0505
20.062
19.0625
18.0648
17.0818
16.1241
15.1994
14.3111
13.4587
12.6393
11.848
11.0797
10.3293
9.59247
8.86549
8.14553
7.4304
6.71854
6.00882
5.30046
4.59293
3.88589
3.17911
2.47249
1.76594
1.05945
0.353049
38.2369
35.1159
32.7788
31.0306
29.6542
28.504
27.4894
26.5527
25.6552
24.7693
23.8757
22.9614
22.0199
21.0516
20.0625
19.0629
18.0654
17.0826
16.1251
15.2004
14.3118
13.4592
12.6394
11.8478
11.0793
10.3289
9.59199
8.86503
8.14511
7.43004
6.71825
6.00858
5.30027
4.59278
3.88578
3.17903
2.47243
1.7659
1.05943
0.353061
35.8685
34.4365
32.6969
31.1147
29.7603
28.5927
27.5549
26.5986
25.6865
24.7904
23.8897
22.9704
22.0253
21.0543
20.0632
19.0621
18.0635
17.08
16.1222
15.1975
14.3093
13.4571
12.6378
11.8467
11.0786
10.3284
9.59177
8.86495
8.14511
7.4301
6.71833
6.00868
5.30037
4.59288
3.88587
3.17912
2.47251
1.76596
1.05947
0.353062
36.5673
34.6274
32.6699
31.0356
29.6864
28.5361
27.5137
26.568
25.6623
24.7699
23.8716
22.9546
22.0125
21.0454
20.059
19.0631
18.0695
17.0902
16.1355
15.2125
14.3246
13.4717
12.651
11.8581
11.088
10.336
9.59767
8.86944
8.14847
7.43256
6.7201
6.00993
5.30125
4.59348
3.88628
3.1794
2.47269
1.76609
1.05955
0.353085
37.9654
35.301
32.901
31.0687
29.6478
28.4804
27.4617
26.5261
25.6311
24.7482
23.8574
22.9459
22.0073
21.042
20.0563
19.0603
18.0663
17.0867
16.132
15.2093
14.3221
13.4701
12.6502
11.858
11.0885
10.3367
9.59856
8.87036
8.14933
7.43333
6.72075
6.01047
5.30167
4.59381
3.88653
3.17959
2.47283
1.76618
1.0596
0.353083
39.6168
36.2115
33.3003
31.2032
29.6636
28.4514
27.4222
26.4909
25.6059
24.7339
23.8524
22.9471
22.011
21.0444
20.0549
19.0539
18.0548
17.0707
16.1132
15.1899
14.3039
13.4542
12.6373
11.8481
11.0812
10.3317
9.5952
8.86824
8.14808
7.43265
6.72044
6.01038
5.3017
4.59391
3.88664
3.17969
2.47292
1.76625
1.05964
0.353084
41.2628
37.1847
33.7773
31.4027
29.7259
28.4534
27.4036
26.4711
25.5936
24.7318
23.8595
22.9599
22.0241
21.0529
20.0552
19.0446
18.0359
17.0439
16.0813
15.1566
14.2724
13.4266
12.6145
11.8302
11.0678
10.322
9.58846
8.86371
8.14514
7.43082
6.71936
6.00978
5.30141
4.5938
3.88664
3.17974
2.47298
1.7663
1.05967
0.353095
42.7597
38.1079
34.2601
31.6278
29.8162
28.4798
27.4047
26.4673
25.5951
24.7424
23.8786
22.9835
22.046
21.0667
20.0572
19.0333
18.0118
17.0089
16.0398
15.1133
14.2314
13.3907
12.5849
11.807
11.0503
10.3093
9.57948
8.85758
8.14109
7.42823
6.71777
6.00885
5.30091
4.59355
3.88654
3.17972
2.47301
1.76634
1.05971
0.353117
44.0242
38.9091
34.6966
31.845
29.9146
28.5192
27.4192
26.4758
25.6073
24.7624
23.9061
23.0144
22.0735
21.0839
20.0604
19.0214
17.9854
16.9704
15.9938
15.0656
14.1865
13.3515
12.5526
11.7816
11.0312
10.2954
9.56966
8.85085
8.1366
7.42533
6.71596
6.00777
5.30029
4.59323
3.8864
3.17968
2.47301
1.76637
1.05974
0.353146
45.0065
39.5424
35.051
32.0288
30.004
28.5605
27.4393
26.4903
25.6246
24.7859
23.9358
23.0466
22.1017
21.1014
20.064
19.0106
17.9608
16.9339
15.9504
15.0205
14.1443
13.3148
12.5225
11.7581
11.0134
10.2824
9.56053
8.84458
8.13241
7.42261
6.71425
6.00674
5.2997
4.59292
3.88625
3.17963
2.47301
1.76639
1.05977
0.353176
45.676
39.9788
35.2993
32.1609
30.0709
28.5938
27.4576
26.5044
25.6406
24.8065
23.9609
23.0732
22.1247
21.1156
20.0672
19.0024
17.9416
16.9056
15.9165
14.9855
14.1115
13.2864
12.4993
11.7399
10.9998
10.2725
9.55353
8.83977
8.1292
7.42052
6.71294
6.00594
5.29924
4.59267
3.88614
3.17959
2.47301
1.7664
1.05979
0.3532
46.0147
40.2009
35.4269
32.2298
30.1067
28.6122
27.4682
26.5129
25.6502
24.8184
23.9752
23.0882
22.1377
21.1237
20.0692
18.998
17.9313
16.8902
15.8981
14.9664
14.0937
13.271
12.4867
11.7301
10.9924
10.2672
9.54976
8.83718
8.12747
7.4194
6.71223
6.00552
5.299
4.59254
3.88607
3.17956
2.47301
1.76641
1.0598
0.353213
46.0148
40.2009
35.427
32.2298
30.1067
28.6122
27.4683
26.5129
25.6502
24.8185
23.9753
23.0883
22.1379
21.1239
20.0694
18.9982
17.9315
16.8904
15.8983
14.9666
14.0939
13.2711
12.4868
11.7302
10.9925
10.2673
9.54984
8.83724
8.12752
7.41944
6.71226
6.00554
5.29901
4.59255
3.88608
3.17957
2.47301
1.76641
1.0598
0.353212
45.6761
39.9788
35.2994
32.161
30.071
28.5938
27.4576
26.5045
25.6408
24.8067
23.9612
23.0735
22.1252
21.1162
20.0678
19.003
17.9423
16.9062
15.9171
14.9861
14.1121
13.2869
12.4997
11.7403
11.0001
10.2728
9.55375
8.83995
8.12934
7.42063
6.71302
6.006
5.29929
4.5927
3.88615
3.1796
2.47301
1.7664
1.05979
0.353197
45.0067
39.5425
35.0511
32.0289
30.004
28.5606
27.4395
26.4905
25.6249
24.7863
23.9363
23.0472
22.1024
21.1022
20.065
19.0116
17.9617
16.9349
15.9513
15.0214
14.1451
13.3156
12.5232
11.7587
11.014
10.2829
9.56089
8.84486
8.13264
7.42278
6.71438
6.00683
5.29977
4.59297
3.88628
3.17965
2.47302
1.76639
1.05976
0.35317
44.0244
38.9093
34.6967
31.8451
29.9147
28.5194
27.4194
26.4761
25.6077
24.7629
23.9067
23.0152
22.0745
21.085
20.0616
19.0227
17.9867
16.9716
15.995
15.0667
14.1876
13.3525
12.5535
11.7824
11.0319
10.2959
9.57012
8.85122
8.13689
7.42556
6.71613
6.00789
5.30038
4.59329
3.88644
3.1797
2.47302
1.76637
1.05973
0.353138
42.7599
38.1081
34.2602
31.6279
29.8163
28.4799
27.4049
26.4677
25.5956
24.743
23.8794
22.9845
22.0472
21.068
20.0586
19.0347
18.0132
17.0103
16.0411
15.1146
14.2327
13.3919
12.5859
11.8079
11.051
10.3099
9.58002
8.85802
8.14143
7.42849
6.71796
6.00899
5.30101
4.59362
3.88658
3.17974
2.47301
1.76634
1.0597
0.353108
41.263
37.1849
33.7775
31.4029
29.7261
28.4536
27.4039
26.4715
25.5941
24.7325
23.8604
22.961
22.0254
21.0543
20.0567
19.0461
18.0374
17.0454
16.0828
15.158
14.2737
13.4278
12.6156
11.8312
11.0687
10.3227
9.58905
8.86418
8.14551
7.4311
6.71957
6.00994
5.30152
4.59386
3.88667
3.17975
2.47298
1.7663
1.05966
0.353084
39.6169
36.2116
33.3005
31.2034
29.6638
28.4516
27.4225
26.4914
25.6065
24.7346
23.8533
22.9483
22.0123
21.0459
20.0565
19.0555
18.0564
17.0723
16.1148
15.1914
14.3053
13.4555
12.6385
11.8491
11.0821
10.3324
9.59581
8.86873
8.14846
7.43294
6.72065
6.01053
5.3018
4.59397
3.88668
3.17971
2.47292
1.76624
1.05963
0.353071
37.9655
35.3011
32.9011
31.0689
29.648
28.4807
27.4621
26.5265
25.6317
24.749
23.8584
22.9471
22.0087
21.0435
20.0578
19.0619
18.068
17.0884
16.1335
15.2108
14.3235
13.4714
12.6514
11.859
11.0893
10.3375
9.59916
8.87084
8.1497
7.4336
6.72095
6.0106
5.30176
4.59386
3.88655
3.17959
2.47282
1.76616
1.05959
0.35307
36.5672
34.6274
32.67
31.0357
29.6865
28.5363
27.5141
26.5685
25.6629
24.7707
23.8725
22.9557
22.0138
21.0469
20.0606
19.0647
18.0711
17.0919
16.1371
15.214
14.326
13.473
12.6521
11.8591
11.0889
10.3367
9.59824
8.8699
8.14882
7.43282
6.72028
6.01005
5.30132
4.59352
3.88629
3.17939
2.47267
1.76606
1.05953
0.35307
35.8683
34.4363
32.6969
31.1148
29.7605
28.5929
27.5552
26.5991
25.6871
24.7912
23.8906
22.9715
22.0267
21.0558
20.0647
19.0637
18.0651
17.0816
16.1237
15.199
14.3106
13.4583
12.6389
11.8477
11.0794
10.3291
9.59231
8.86537
8.14543
7.43033
6.71849
6.00878
5.30043
4.5929
3.88587
3.1791
2.47248
1.76593
1.05944
0.353044
33.9457
33.286
32.1456
30.8952
29.6988
28.5987
27.5863
26.6374
25.7257
24.8275
23.9237
23.0003
22.0498
21.0719
20.073
19.0642
18.0586
17.0694
16.1079
15.1816
14.2937
13.4431
12.6261
11.8375
11.0717
10.3234
9.58826
8.86258
8.14357
7.42914
6.71776
6.00836
5.30022
4.59282
3.88586
3.17914
2.47253
1.76598
1.05947
0.353035
34.0735
33.3111
32.0957
30.8256
29.6358
28.5486
27.5468
26.6042
25.6952
24.7978
23.8944
22.9727
22.0263
21.0552
20.0651
19.0661
18.0701
17.0891
16.1334
15.2101
14.3225
13.4703
12.6502
11.858
11.0884
10.3367
9.5985
8.87031
8.14929
7.43329
6.72072
6.01045
5.30165
4.5938
3.88652
3.17958
2.47283
1.76618
1.0596
0.353082
34.588
33.6475
32.2488
30.8679
29.6257
28.5188
27.5129
26.5724
25.6675
24.7746
23.8754
22.9575
22.0145
21.0466
20.0599
19.0643
18.0715
17.0931
16.1395
15.2177
14.331
13.4789
12.6586
11.8657
11.0952
10.3424
9.60323
8.8741
8.15227
7.43558
6.72246
6.01174
5.3026
4.59449
3.88702
3.17993
2.47307
1.76635
1.0597
0.353095
35.3208
34.1678
32.5364
30.9969
29.6663
28.5169
27.4946
26.5512
25.6497
24.7624
23.869
22.9553
22.014
21.0453
20.0566
19.0586
18.0634
17.0829
16.1283
15.2069
14.3217
13.4717
12.6535
11.8624
11.0934
10.3417
9.60317
8.87447
8.15284
7.43623
6.72309
6.01231
5.3031
4.5949
3.88734
3.18018
2.47326
1.76648
1.05978
0.35311
36.1233
34.7628
32.8925
31.1799
29.7455
28.5416
27.4951
26.5446
25.645
24.7636
23.8764
22.9664
22.0244
21.0504
20.0547
19.0495
18.0471
17.0604
16.1023
15.1807
14.2977
13.4515
12.6374
11.8503
11.0847
10.3357
9.59932
8.8721
8.1515
7.43555
6.72283
6.01229
5.30321
4.59507
3.88752
3.18035
2.4734
1.76659
1.05985
0.353138
36.8945
35.3515
33.262
31.3842
29.8464
28.5853
27.5115
26.5518
25.6532
24.7774
23.8963
22.9894
22.0442
21.0608
20.0537
19.0376
18.0248
17.0285
16.0651
15.143
14.2633
13.4222
12.6139
11.8323
11.0714
10.3264
9.5929
8.86788
8.14883
7.43396
6.72195
6.01186
5.30304
4.59506
3.88759
3.18045
2.4735
1.76667
1.05991
0.353179
37.5692
35.8767
33.6022
31.5813
29.9512
28.6375
27.5377
26.5688
25.6706
24.8001
23.925
23.0207
22.0706
21.0741
20.0533
19.0247
17.9996
16.9916
16.0219
15.0997
14.2238
13.3887
12.587
11.8116
11.0561
10.3154
9.58532
8.86279
8.14554
7.43191
6.72074
6.01119
5.30272
4.59494
3.88758
3.1805
2.47357
1.76674
1.05997
0.353227
38.1053
36.2996
33.8819
31.7484
30.0444
28.6877
27.5662
26.5894
25.6917
24.8257
23.9561
23.0538
22.0982
21.0875
20.0529
19.0126
17.9758
16.9558
15.9801
15.0579
14.186
13.3568
12.5614
11.7919
11.0415
10.3049
9.57801
8.85786
8.14232
7.42988
6.71951
6.01049
5.30236
4.59477
3.88754
3.18052
2.47362
1.76679
1.06002
0.353274
38.4758
36.5944
34.0796
31.8688
30.1136
28.7267
27.5899
26.6074
25.7101
24.8477
23.9821
23.0812
22.1208
21.0985
20.0527
19.0031
17.9572
16.9279
15.9473
15.0251
14.1564
13.3318
12.5415
11.7766
11.0302
10.2967
9.57232
8.85401
8.13978
7.42827
6.71853
6.00993
5.30205
4.59463
3.88749
3.18052
2.47364
1.76683
1.06006
0.353311
38.6647
36.7454
34.1817
31.9317
30.1504
28.748
27.6032
26.6178
25.7208
24.8603
23.997
23.0966
22.1336
21.1049
20.0528
18.998
17.9471
16.9126
15.9294
15.0072
14.1403
13.3183
12.5306
11.7683
11.024
10.2923
9.56924
8.85192
8.13842
7.4274
6.718
6.00962
5.30189
4.59456
3.88747
3.18052
2.47366
1.76685
1.06008
0.353331
38.6647
36.7454
34.1817
31.9317
30.1504
28.748
27.6032
26.6179
25.7209
24.8604
23.9971
23.0968
22.1337
21.105
20.053
18.9982
17.9473
16.9128
15.9297
15.0074
14.1405
13.3184
12.5308
11.7684
11.0241
10.2924
9.56932
8.85198
8.13846
7.42744
6.71803
6.00964
5.3019
4.59457
3.88747
3.18052
2.47366
1.76685
1.06008
0.353329
38.4759
36.5944
34.0797
31.8689
30.1137
28.7268
27.59
26.6075
25.7103
24.8479
23.9824
23.0815
22.1213
21.099
20.0533
19.0037
17.9578
16.9285
15.9479
15.0257
14.157
13.3323
12.5419
11.777
11.0305
10.297
9.57253
8.85418
8.13992
7.42838
6.71861
6.00999
5.3021
4.59466
3.88751
3.18053
2.47365
1.76683
1.06005
0.353307
38.1054
36.2997
33.882
31.7485
30.0445
28.6878
27.5664
26.5896
25.6919
24.8261
23.9566
23.0544
22.099
21.0884
20.0538
19.0135
17.9767
16.9567
15.981
15.0588
14.1869
13.3575
12.5621
11.7925
11.042
10.3053
9.57835
8.85813
8.14253
7.43004
6.71963
6.01059
5.30242
4.59482
3.88757
3.18053
2.47362
1.7668
1.06002
0.353267
37.5694
35.8769
33.6023
31.5814
29.9514
28.6377
27.5379
26.569
25.671
24.8006
23.9257
23.0215
22.0716
21.0752
20.0545
19.0259
18.0008
16.9927
16.0231
15.1008
14.2249
13.3897
12.5879
11.8124
11.0568
10.3159
9.58576
8.86315
8.14582
7.43213
6.7209
6.01131
5.3028
4.59499
3.88762
3.18052
2.47358
1.76674
1.05996
0.353217
36.8947
35.3517
33.2622
31.3844
29.8465
28.5855
27.5117
26.5522
25.6537
24.778
23.8971
22.9904
22.0454
21.0621
20.0551
19.039
18.0261
17.0298
16.0663
15.1443
14.2645
13.4233
12.6149
11.8332
11.0722
10.327
9.59342
8.8683
8.14916
7.43421
6.72214
6.012
5.30314
4.59512
3.88763
3.18047
2.47351
1.76667
1.0599
0.353167
36.1235
34.763
32.8927
31.1801
29.7457
28.5419
27.4953
26.5449
25.6455
24.7643
23.8772
22.9675
22.0256
21.0519
20.0562
19.0509
18.0486
17.0619
16.1037
15.182
14.299
13.4527
12.6385
11.8513
11.0855
10.3364
9.59989
8.87256
8.15185
7.43583
6.72304
6.01244
5.30331
4.59513
3.88756
3.18037
2.47341
1.76658
1.05983
0.353125
35.3209
34.1679
32.5365
30.997
29.6665
28.5172
27.4949
26.5516
25.6502
24.7632
23.8699
22.9565
22.0153
21.0468
20.0581
19.0602
18.065
17.0845
16.1298
15.2083
14.323
13.4729
12.6546
11.8634
11.0942
10.3424
9.60376
8.87494
8.15321
7.43651
6.72329
6.01245
5.30319
4.59495
3.88737
3.18019
2.47326
1.76647
1.05976
0.353095
34.5881
33.6476
32.2489
30.868
29.6259
28.519
27.5132
26.5728
25.6681
24.7753
23.8763
22.9587
22.0159
21.0481
20.0615
19.0659
18.0731
17.0947
16.141
15.2192
14.3324
13.4802
12.6598
11.8667
11.096
10.3431
9.60381
8.87456
8.15262
7.43585
6.72265
6.01187
5.30268
4.59453
3.88703
3.17993
2.47306
1.76633
1.05968
0.353078
34.0734
33.3111
32.0957
30.8256
29.636
28.5488
27.5471
26.6046
25.6958
24.7985
23.8954
22.9739
22.0277
21.0567
20.0667
19.0677
18.0717
17.0907
16.1349
15.2116
14.3239
13.4715
12.6514
11.859
11.0892
10.3374
9.59905
8.87074
8.14962
7.43353
6.72089
6.01055
5.30172
4.59383
3.88652
3.17956
2.4728
1.76615
1.05958
0.353064
33.9455
33.2858
32.1456
30.8952
29.6989
28.5989
27.5867
26.6379
25.7262
24.8283
23.9247
23.0015
22.0512
21.0734
20.0747
19.0658
18.0602
17.071
16.1094
15.1831
14.295
13.4443
12.6272
11.8384
11.0724
10.324
9.58876
8.86296
8.14385
7.42934
6.71789
6.00844
5.30025
4.59282
3.88584
3.1791
2.47249
1.76593
1.05943
0.353011
32.5257
32.176
31.4321
30.4902
29.4927
28.5092
27.562
26.6488
25.7565
24.8688
23.9693
23.0449
22.0885
21.1004
20.0887
19.0662
18.0479
17.0484
16.0801
15.1511
14.264
13.4165
12.6039
11.8198
11.0582
10.3136
9.58129
8.85779
8.14038
7.42707
6.71647
6.00759
5.29978
4.59259
3.88576
3.1791
2.47252
1.76598
1.05946
0.353014
32.4826
32.1355
31.369
30.4214
29.4304
28.4565
27.5167
26.6071
25.7153
24.8263
23.9261
23.0035
22.0528
21.0747
20.0762
19.0686
18.0647
17.0773
16.1174
15.1925
14.3054
13.4551
12.6378
11.8483
11.0813
10.3317
9.59515
8.86818
8.14801
7.43259
6.72039
6.01033
5.30167
4.59388
3.88663
3.17968
2.47291
1.76624
1.05964
0.353082
32.6254
32.2694
31.442
30.4428
29.4211
28.4325
27.4873
26.5768
25.686
24.7989
23.9012
22.9818
22.0348
21.061
20.0681
19.0669
18.0692
17.0869
16.131
15.2087
14.3228
13.4724
12.6539
11.8626
11.0935
10.3417
9.60319
8.87446
8.15283
7.43621
6.72307
6.01229
5.30308
4.59489
3.88733