# vtk DataFile Version 2.0
I need something to put here
ASCII

DATASET STRUCTURED_GRID
DIMENSIONS 41 21 21
POINTS 18081 float
0.000000 0.000000 0.000000
0.100000 0.000000 0.000000
0.200000 0.000000 0.000000
0.300000 0.000000 0.000000
0.400000 0.000000 0.000000
0.500000 0.000000 0.000000
0.600000 0.000000 0.000000
0.700000 0.000000 0.000000
0.800000 0.000000 0.000000
0.900000 0.000000 0.000000
1.000000 0.000000 0.000000
1.100000 0.000000 0.000000
1.200000 0.000000 0.000000
1.300000 0.000000 0.000000
1.400000 0.000000 0.000000
1.500000 0.000000 0.000000
1.600000 0.000000 0.000000
1.700000 0.000000 0.000000
1.800000 0.000000 0.000000
1.900000 0.000000 0.000000
2.000000 0.000000 0.000000
2.100000 0.000000 0.000000
2.200000 0.000000 0.000000
2.300000 0.000000 0.000000
2.400000 0.000000 0.000000
2.500000 0.000000 0.000000
2.600000 0.000000 0.000000
2.700000 0.000000 0.000000
2.800000 0.000000 0.000000
2.900000 0.000000 0.000000
3.000000 0.000000 0.000000
3.100000 0.000000 0.000000
3.200000 0.000000 0.000000
3.300000 0.000000 0.000000
3.400000 0.000000 0.000000
3.500000 0.000000 0.000000
3.600000 0.000000 0.000000
3.700000 0.000000 0.000000
3.800000 0.000000 0.000000
3.900000 0.000000 0.000000
4.000000 0.000000 0.000000
0.000000 0.100000 0.000000
0.100000 0.100000 0.000000
0.200000 0.100000 0.000000
0.300000 0.100000 0.000000
0.400000 0.100000 0.000000
0.500000 0.100000 0.000000
0.600000 0.100000 0.000000
0.700000 0.100000 0.000000
0.800000 0.100000 0.000000
0.900000 0.100000 0.000000
1.000000 0.100000 0.000000
1.100000 0.100000 0.000000
1.200000 0.100000 0.000000
1.300000 0.100000 0.000000
1.400000 0.100000 0.000000
1.500000 0.100000 0.000000
1.600000 0.100000 0.000000
1.700000 0.100000 0.000000
1.800000 0.100000 0.000000
1.900000 0.100000 0.000000
2.000000 0.100000 0.000000
2.100000 0.100000 0.000000
2.200000 0.100000 0.000000
2.300000 0.100000 0.000000
2.400000 0.100000 0.000000
2.500000 0.100000 0.000000
2.600000 0.100000 0.000000
2.700000 0.100000 0.000000
2.800000 0.100000 0.000000
2.900000 0.100000 0.000000
3.000000 0.100000 0.000000
3.100000 0.100000 0.000000
3.200000 0.100000 0.000000
3.300000 0.100000 0.000000
3.400000 0.100000 0.000000
3.500000 0.100000 0.000000
3.600000 0.100000 0.000000
3.700000 0.100000 0.000000
3.800000 0.100000 0.000000
3.900000 0.100000 0.000000
4.000000 0.100000 0.000000
0.000000 0.200000 0.000000
0.100000 0.200000 0.000000
0.200000 0.200000 0.000000
0.300000 0.200000 0.000000
0.400000 0.200000 0.000000
0.500000 0.200000 0.000000
0.600000 0.200000 0.000000
0.700000 0.200000 0.000000
0.800000 0.200000 0.000000
0.900000 0.200000 0.000000
1.000000 0.200000 0.000000
1.100000 0.200000 0.000000
1.200000 0.200000 0.000000
1.300000 0.200000 0.000000
1.400000 0.200000 0.000000
1.500000 0.200000 0.000000
1.600000 0.200000 0.000000
1.700000 0.200000 0.000000
1.800000 0.200000 0.000000
1.900000 0.200000 0.000000
2.000000 0.200000 0.000000
2.100000 0.200000 0.000000
2.200000 0.200000 0.000000
2.300000 0.200000 0.000000
2.400000 0.200000 0.000000
2.500000 0.200000 0.000000
2.600000 0.200000 0.000000
2.700000 0.200000 0.000000
2.800000 0.200000 0.000000
2.900000 0.200000 0.000000
3.000000 0.200000 0.000000
3.100000 0.200000 0.000000
3.200000 0.200000 0.000000
3.300000 0.200000 0.000000
3.400000 0.200000 0.000000
3.500000 0.200000 0.000000
3.600000 0.200000 0.000000
3.700000 0.200000 0.000000
3.800000 0.200000 0.000000
3.900000 0.200000 0.000000
4.000000 0.200000 0.000000
0.000000 0.300000 0.000000
0.100000 0.300000 0.000000
0.200000 0.300000 0.000000
0.300000 0.300000 0.000000
0.400000 0.300000 0.000000
0.500000 0.300000 0.000000
0.600000 0.300000 0.000000
0.700000 0.300000 0.000000
0.800000 0.300000 0.000000
0.900000 0.300000 0.000000
1.000000 0.300000 0.000000
1.100000 0.300000 0.000000
1.200000 0.300000 0.000000
1.300000 0.300000 0.000000
1.400000 0.300000 0.000000
1.500000 0.300000 0.000000
1.600000 0.300000 0.000000
1.700000 0.300000 0.000000
1.800000 0.300000 0.000000
1.900000 0.300000 0.000000
2.000000 0.300000 0.000000
2.100000 0.300000 0.000000
2.200000 0.300000 0.000000
2.300000 0.300000 0.000000
2.400000 0.300000 0.000000
2.500000 0.300000 0.000000
2.600000 0.300000 0.000000
2.700000 0.300000 0.000000
2.800000 0.300000 0.000000
2.900000 0.300000 0.000000
3.000000 0.300000 0.000000
3.100000 0.300000 0.000000
3.200000 0.300000 0.000000
3.300000 0.300000 0.000000
3.400000 0.300000 0.000000
3.500000 0.300000 0.000000
3.600000 0.300000 0.000000
3.700000 0.300000 0.000000
3.800000 0.300000 0.000000
3.900000 0.300000 0.000000
4.000000 0.300000 0.000000
0.000000 0.400000 0.000000
0.100000 0.400000 0.000000
0.200000 0.400000 0.000000
0.300000 0.400000 0.000000
0.400000 0.400000 0.000000
0.500000 0.400000 0.000000
0.600000 0.400000 0.000000
0.700000 0.400000 0.000000
0.800000 0.400000 0.000000
0.900000 0.400000 0.000000
1.000000 0.400000 0.000000
1.100000 0.400000 0.000000
1.200000 0.400000 0.000000
1.300000 0.400000 0.000000
1.400000 0.400000 0.000000
1.500000 0.400000 0.000000
1.600000 0.400000 0.000000
1.700000 0.400000 0.000000
1.800000 0.400000 0.000000
1.900000 0.400000 0.000000
2.000000 0.400000 0.000000
2.100000 0.400000 0.000000
2.200000 0.400000 0.000000
2.300000 0.400000 0.000000
2.400000 0.400000 0.000000
2.500000 0.400000 0.000000
2.600000 0.400000 0.000000
2.700000 0.400000 0.000000
2.800000 0.400000 0.000000
2.900000 0.400000 0.000000
3.000000 0.400000 0.000000
3.100000 0.400000 0.000000
3.200000 0.400000 0.000000
3.300000 0.400000 0.000000
3.400000 0.400000 0.000000
3.500000 0.400000 0.000000
3.600000 0.400000 0.000000
3.700000 0.400000 0.000000
3.800000 0.400000 0.000000
3.900000 0.400000 0.000000
4.000000 0.400000 0.000000
0.000000 0.500000 0.000000
0.100000 0.500000 0.000000
0.200000 0.500000 0.000000
0.300000 0.500000 0.000000
0.400000 0.500000 0.000000
0.500000 0.500000 0.000000
0.600000 0.500000 0.000000
0.700000 0.500000 0.000000
0.800000 0.500000 0.000000
0.900000 0.500000 0.000000
1.000000 0.500000 0.000000
1.100000 0.500000 0.000000
1.200000 0.500000 0.000000
1.300000 0.500000 0.000000
1.400000 0.500000 0.000000
1.500000 0.500000 0.000000
1.600000 0.500000 0.000000
1.700000 0.500000 0.000000
1.800000 0.500000 0.000000
1.900000 0.500000 0.000000
2.000000 0.500000 0.000000
2.100000 0.500000 0.000000
2.200000 0.500000 0.000000
2.300000 0.500000 0.000000
2.400000 0.500000 0.000000
2.500000 0.500000 0.000000
2.600000 0.500000 0.000000
2.700000 0.500000 0.000000
2.800000 0.500000 0.000000
2.900000 0.500000 0.000000
3.000000 0.500000 0.000000
3.100000 0.500000 0.000000
3.200000 0.500000 0.000000
3.300000 0.500000 0.000000
3.400000 0.500000 0.000000
3.500000 0.500000 0.000000
3.600000 0.500000 0.000000
3.700000 0.500000 0.000000
3.800000 0.500000 0.000000
3.900000 0.500000 0.000000
4.000000 0.500000 0.000000
0.000000 0.600000 0.000000
0.100000 0.600000 0.000000
0.200000 0.600000 0.000000
0.300000 0.600000 0.000000
0.400000 0.600000 0.000000
0.500000 0.600000 0.000000
0.600000 0.600000 0.000000
0.700000 0.600000 0.000000
0.800000 0.600000 0.000000
0.900000 0.600000 0.000000
1.000000 0.600000 0.000000
1.100000 0.600000 0.000000
1.200000 0.600000 0.000000
1.300000 0.600000 0.000000
1.400000 0.600000 0.000000
1.500000 0.600000 0.000000
1.600000 0.600000 0.000000
1.700000 0.600000 0.000000
1.800000 0.600000 0.000000
1.900000 0.600000 0.000000
2.000000 0.600000 0.000000
2.100000 0.600000 0.000000
2.200000 0.600000 0.000000
2.300000 0.600000 0.000000
2.400000 0.600000 0.000000
2.500000 0.600000 0.000000
2.600000 0.600000 0.000000
2.700000 0.600000 0.000000
2.800000 0.600000 0.000000
2.900000 0.600000 0.000000
3.000000 0.600000 0.000000
3.100000 0.600000 0.000000
3.200000 0.600000 0.000000
3.300000 0.600000 0.000000
3.400000 0.600000 0.000000
3.500000 0.600000 0.000000
3.600000 0.600000 0.000000
3.700000 0.600000 0.000000
3.800000 0.600000 0.000000
3.900000 0.600000 0.000000
4.000000 0.600000 0.000000
0.000000 0.700000 0.000000
0.100000 0.700000 0.000000
0.200000 0.700000 0.000000
0.300000 0.700000 0.000000
0.400000 0.700000 0.000000
0.500000 0.700000 0.000000
0.600000 0.700000 0.000000
0.700000 0.700000 0.000000
0.800000 0.700000 0.000000
0.900000 0.700000 0.000000
1.000000 0.700000 0.000000
1.100000 0.700000 0.000000
1.200000 0.700000 0.000000
1.300000 0.700000 0.000000
1.400000 0.700000 0.000000
1.500000 0.700000 0.000000
1.600000 0.700000 0.000000
1.700000 0.700000 0.000000
1.800000 0.700000 0.000000
1.900000 0.700000 0.000000
2.000000 0.700000 0.000000
2.100000 0.700000 0.000000
2.200000 0.700000 0.000000
2.300000 0.700000 0.000000
2.400000 0.700000 0.000000
2.500000 0.700000 0.000000
2.600000 0.700000 0.000000
2.700000 0.700000 0.000000
2.800000 0.700000 0.000000
2.900000 0.700000 0.000000
3.000000 0.700000 0.000000
3.100000 0.700000 0.000000
3.200000 0.700000 0.000000
3.300000 0.700000 0.000000
3.400000 0.700000 0.000000
3.500000 0.700000 0.000000
3.600000 0.700000 0.000000
3.700000 0.700000 0.000000
3.800000 0.700000 0.000000
3.900000 0.700000 0.000000
4.000000 0.700000 0.000000
0.000000 0.800000 0.000000
0.100000 0.800000 0.000000
0.200000 0.800000 0.000000
0.300000 0.800000 0.000000
0.400000 0.800000 0.000000
0.500000 0.800000 0.000000
0.600000 0.800000 0.000000
0.700000 0.800000 0.000000
0.800000 0.800000 0.000000
0.900000 0.800000 0.000000
1.000000 0.800000 0.000000
1.100000 0.800000 0.000000
1.200000 0.800000 0.000000
1.300000 0.800000 0.000000
1.400000 0.800000 0.000000
1.500000 0.800000 0.000000
1.600000 0.800000 0.000000
1.700000 0.800000 0.000000
1.800000 0.800000 0.000000
1.900000 0.800000 0.000000
2.000000 0.800000 0.000000
2.100000 0.800000 0.000000
2.200000 0.800000 0.000000
2.300000 0.800000 0.000000
2.400000 0.800000 0.000000
2.500000 0.800000 0.000000
2.600000 0.800000 0.000000
2.700000 0.800000 0.000000
2.800000 0.800000 0.000000
2.900000 0.800000 0.000000
3.000000 0.800000 0.000000
3.100000 0.800000 0.000000
3.200000 0.800000 0.000000
3.300000 0.800000 0.000000
3.400000 0.800000 0.000000
3.500000 0.800000 0.000000
3.600000 0.800000 0.000000
[...]
CELL_DATA 16000
SCALARS pressure float 1
LOOKUP_TABLE default
35.0911
31.9681
29.6305
27.886
26.52
25.3896
24.4075
23.5204
22.6944
21.9072
21.1439
20.394
19.6507
18.91
18.17
17.4307
16.693
15.9583
15.2278
14.5021
13.7815
13.0652
12.3526
11.6428
10.9349
10.2283
9.52238
8.81695
8.11171
7.40655
6.70138
5.99617
5.2909
4.58557
3.88019
3.17476
2.4693
1.76381
1.0583
0.352776
37.4421
32.3279
29.5136
27.7046
26.3701
25.2822
24.3348
23.4725
22.6636
21.8879
21.1321
20.3871
19.647
18.9081
18.1692
17.4305
16.693
15.9584
15.2279
14.5023
13.7816
13.0654
12.3528
11.643
10.9351
10.2284
9.52252
8.81705
8.11179
7.40661
6.70142
5.9962
5.29092
4.58558
3.8802
3.17477
2.4693
1.76381
1.0583
0.352778
40.8007
33.3054
29.672
27.6149
26.2291
25.152
24.2305
23.3942
22.6071
21.8484
21.1055
20.3699
19.6361
18.9013
18.1647
17.427
16.6899
15.9554
15.225
14.4998
13.7796
13.0639
12.3518
11.6424
10.9347
10.2283
9.52248
8.81708
8.11185
7.40668
6.70149
5.99625
5.29096
4.58562
3.88022
3.17479
2.46932
1.76382
1.05831
0.352783
44.3016
34.5507
30.0317
27.6456
26.1509
25.0497
24.1351
23.3154
22.5461
21.8036
21.074
20.3487
19.6222
18.892
18.1578
17.421
16.684
15.9494
15.2193
14.4946
13.7753
13.0607
12.3495
11.6409
10.9338
10.2278
9.52227
8.81702
8.11188
7.40674
6.70156
5.99633
5.29103
4.58567
3.88027
3.17482
2.46934
1.76384
1.05832
0.352788
47.5735
35.8346
30.4849
27.7587
26.1312
24.9848
24.0618
23.2487
22.4913
21.7617
21.0439
20.3282
19.6087
18.8826
18.1501
17.4136
16.6761
15.941
15.2109
14.4871
13.7691
13.056
12.3462
11.6387
10.9325
10.227
9.52189
8.81688
8.11187
7.4068
6.70164
5.99641
5.29111
4.58574
3.88032
3.17486
2.46937
1.76386
1.05834
0.352793
50.4387
37.0232
30.9493
27.9106
26.1502
24.9507
24.0109
23.1975
22.447
21.7268
21.0187
20.3112
19.5975
18.8745
18.1429
17.4057
16.667
15.9309
15.2007
14.4778
13.7615
13.0502
12.3421
11.636
10.9308
10.2261
9.52141
8.81668
8.11183
7.40684
6.70172
5.9965
5.29119
4.58581
3.88038
3.1749
2.46941
1.76389
1.05835
0.352798
52.8025
38.0375
31.3697
28.0665
26.188
24.9374
23.9782
23.1607
22.4136
21.7001
20.9994
20.2986
19.5894
18.8685
18.1368
17.3983
16.6577
15.9202
15.1899
14.468
13.7534
13.0441
12.3379
11.6332
10.9291
10.2251
9.52089
8.81646
8.11178
7.40687
6.7018
5.99658
5.29127
4.58588
3.88043
3.17495
2.46944
1.76391
1.05836
0.352802
54.6107
38.8301
31.7101
28.2018
26.2289
24.9355
23.9586
23.1361
22.3902
21.6811
20.9859
20.2901
19.5843
18.8644
18.1321
17.392
16.6495
15.9106
15.1799
14.4589
13.746
13.0385
12.334
11.6306
10.9275
10.2242
9.52042
8.81626
8.11172
7.4069
6.70186
5.99666
5.29134
4.58594
3.88048
3.17499
2.46947
1.76393
1.05837
0.352806
55.8311
39.3721
31.9479
28.3001
26.262
24.9381
23.948
23.1211
22.3756
21.6692
20.9775
20.285
19.5813
18.862
18.129
17.3875
16.6434
15.9032
15.1723
14.452
13.7404
13.0343
12.331
11.6287
10.9263
10.2235
9.52007
8.8161
8.11168
7.40692
6.70191
5.99671
5.29139
4.58598
3.88052
3.17502
2.46949
1.76394
1.05838
0.352809
56.4453
39.6468
32.0699
28.3516
26.2801
24.9406
23.9435
23.1141
22.3686
21.6634
20.9735
20.2826
19.58
18.8609
18.1275
17.3851
16.6401
15.8993
15.1683
14.4483
13.7374
13.032
12.3294
11.6276
10.9257
10.2231
9.51989
8.81602
8.11167
7.40694
6.70193
5.99674
5.29142
4.58601
3.88054
3.17503
2.4695
1.76395
1.05839
0.352811
56.4453
39.6468
32.0699
28.3516
26.2801
24.9406
23.9435
23.1141
22.3686
21.6634
20.9735
20.2826
19.58
18.8609
18.1275
17.3851
16.6402
15.8993
15.1683
14.4484
13.7374
13.032
12.3294
11.6277
10.9257
10.2231
9.5199
8.81603
8.11167
7.40694
6.70194
5.99674
5.29142
4.58601
3.88054
3.17503
2.4695
1.76395
1.05839
0.352811
55.8311
39.3721
31.9479
28.3001
26.2619
24.9381
23.948
23.1211
22.3756
21.6692
20.9775
20.285
19.5813
18.862
18.1291
17.3875
16.6435
15.9033
15.1724
14.4521
13.7405
13.0344
12.3311
11.6287
10.9264
10.2235
9.5201
8.81613
8.11171
7.40694
6.70192
5.99672
5.2914
4.58599
3.88052
3.17502
2.46949
1.76394
1.05838
0.352809
54.6107
38.8301
31.7101
28.2018
26.2289
24.9355
23.9586
23.136
22.3902
21.6811
20.9859
20.2901
19.5843
18.8645
18.1322
17.3921
16.6496
15.9107
15.18
14.4591
13.7462
13.0386
12.3341
11.6307
10.9276
10.2242
9.52048
8.8163
8.11176
7.40693
6.70188
5.99667
5.29135
4.58595
3.88049
3.17499
2.46947
1.76393
1.05837
0.352806
52.8025
38.0375
31.3697
28.0665
26.188
24.9373
23.9782
23.1607
22.4136
21.7001
20.9994
20.2986
19.5895
18.8685
18.1369
17.3984
16.6579
15.9204
15.19
14.4681
13.7536
13.0442
12.338
11.6333
10.9292
10.2252
9.52097
8.81652
8.11182
7.40691
6.70182
5.9966
5.29128
4.58589
3.88044
3.17495
2.46944
1.76391
1.05836
0.352802
50.4387
37.0232
30.9493
27.9106
26.1501
24.9507
24.0109
23.1975
22.447
21.7268
21.0187
20.3113
19.5976
18.8746
18.143
17.4058
16.6671
15.931
15.2009
14.478
13.7617
13.0503
12.3423
11.6361
10.931
10.2262
9.52149
8.81675
8.11188
7.40688
6.70176
5.99652
5.29121
4.58582
3.88038
3.17491
2.46941
1.76388
1.05835
0.352797
47.5735
35.8346
30.4849
27.7587
26.1311
24.9847
24.0618
23.2487
22.4913
21.7617
21.044
20.3283
19.6087
18.8826
18.1502
17.4137
16.6762
15.9411
15.2111
14.4872
13.7693
13.0561
12.3464
11.6388
10.9326
10.2271
9.52198
8.81695
8.11193
7.40684
6.70168
5.99644
5.29112
4.58575
3.88033
3.17486
2.46937
1.76386
1.05833
0.352791
44.3015
34.5506
30.0316
27.6455
26.1509
25.0497
24.1351
23.3153
22.5461
21.8036
21.074
20.3487
19.6223
18.8921
18.1579
17.4211
16.6842
15.9496
15.2195
14.4948
13.7755
13.0609
12.3497
11.641
10.934
10.2279
9.52236
8.8171
8.11194
7.40679
6.7016
5.99635
5.29105
4.58568
3.88027
3.17482
2.46934
1.76384
1.05832
0.352786
40.8006
33.3053
29.6719
27.6148
26.229
25.1519
24.2304
23.3942
22.607
21.8484
21.1055
20.3699
19.6361
18.9014
18.1648
17.4271
16.69
15.9555
15.2252
14.5
13.7798
13.0641
12.352
11.6425
10.9349
10.2284
9.52257
8.81716
8.11191
7.40672
6.70152
5.99628
5.29098
4.58563
3.88023
3.17479
2.46932
1.76382
1.05831
0.352781
37.4419
32.3277
29.5134
27.7044
26.37
25.2822
24.3348
23.4725
22.6635
21.8879
21.1321
20.3872
19.647
18.9082
18.1693
17.4306
16.6931
15.9585
15.228
14.5024
13.7818
13.0656
12.353
11.6432
10.9352
10.2285
9.52261
8.81712
8.11185
7.40665
6.70145
5.99622
5.29093
4.58559
3.8802
3.17477
2.4693
1.76381
1.0583
0.352776
35.0908
31.9679
29.6303
27.8858
26.5199
25.3895
24.4074
23.5203
22.6943
21.9072
21.1439
20.394
19.6508
18.9101
18.1701
17.4308
16.6932
15.9584
15.2279
14.5023
13.7816
13.0654
12.3528
11.6429
10.935
10.2284
9.52247
8.81701
8.11177
7.40659
6.70141
5.99619
5.29091
4.58557
3.88019
3.17476
2.4693
1.76381
1.0583
0.352775
32.7236
31.289
29.5489
27.9704
26.6264
25.4786
24.4734
23.5666
22.7259
21.9283
21.1578
20.403
19.6564
18.9135
18.172
17.4317
16.6934
15.9582
15.2275
14.5019
13.7812
13.0651
12.3525
11.6428
10.9349
10.2283
9.52241
8.81698
8.11174
7.40657
6.7014
5.99618
5.29091
4.58558
3.88019
3.17476
2.4693
1.76381
1.0583
0.352778
33.4246
31.4819
29.5245
27.8951
26.5577
25.4288
24.4408
23.5465
22.714
21.9214
21.1539
20.4008
19.6553
18.9132
18.1725
17.4329
16.6951
15.9605
15.23
14.5043
13.7835
13.0671
12.3542
11.644
10.9359
10.229
9.52289
8.8173
8.11195
7.4067
6.70147
5.99622
5.29093
4.58558
3.88019
3.17476
2.4693
1.76381
1.0583
0.352776
34.8243
32.1561
29.756
27.9287
26.5197
25.3737
24.3891
23.5044
22.6819
21.8981
21.1375
20.3898
19.6481
18.9085
18.1694
17.4308
16.6937
15.9594
15.2292
14.5038
13.7833
13.067
12.3543
11.6443
10.9361
10.2292
9.52313
8.8175
8.11211
7.40683
6.70157
5.99629
5.29098
4.58562
3.88021
3.17478
2.46931
1.76381
1.0583
0.352778
36.4744
33.0647
30.153
28.0603
26.5316
25.3393
24.3422
23.4593
22.6441
21.8687
21.1159
20.3746
19.6378
18.9014
18.1641
17.4264
16.6896
15.9554
15.2255
14.5007
13.7807
13.0652
12.3531
11.6435
10.9357
10.2291
9.52313
8.81757
8.11221
7.40693
6.70166
5.99637
5.29104
4.58567
3.88025
3.1748
2.46933
1.76383
1.05831
0.352782
38.1161
34.0335
30.625
28.2536
26.586
25.3307
24.3095
23.4211
22.6089
21.8399
21.0942
20.3591
19.627
18.8936
18.1578
17.4205
16.6836
15.9492
15.2195
14.4953
13.7764
13.0619
12.3508
11.6421
10.9349
10.2286
9.52293
8.81753
8.11226
7.40701
6.70176
5.99646
5.29112
4.58573
3.8803
3.17484
2.46935
1.76384
1.05832
0.352785
39.6058
34.9499
31.1004
28.47
26.6652
25.3426
24.2915
23.393
22.5803
21.8154
21.0752
20.3456
19.6176
18.8865
18.1515
17.414
16.6764
15.9415
15.2119
14.4885
13.7708
13.0577
12.3478
11.6401
10.9337
10.2279
9.52261
8.81742
8.11226
7.40708
6.70184
5.99655
5.2912
4.5858
3.88035
3.17488
2.46938
1.76386
1.05833
0.352788
40.8618
35.743
31.5285
28.6773
26.7511
25.3658
24.2848
23.3743
22.5591
21.7964
21.0604
20.3352
19.6104
18.8808
18.146
17.4078
16.6691
15.9334
15.2037
14.4811
13.7648
13.0531
12.3446
11.6379
10.9323
10.2272
9.52222
8.81726
8.11224
7.40712
6.70192
5.99663
5.29127
4.58586
3.88041
3.17492
2.46941
1.76388
1.05834
0.352792
41.8355
36.3684
31.8746
28.8514
26.8284
25.3915
24.2848
23.3631
22.5447
21.783
21.0499
20.3278
19.6053
18.8766
18.1415
17.4024
16.6626
15.9259
15.1962
14.4744
13.7592
13.0489
12.3416
11.636
10.9311
10.2265
9.52185
8.81711
8.11221
7.40716
6.70198
5.9967
5.29134
4.58592
3.88045
3.17496
2.46944
1.7639
1.05835
0.352794
42.4981
36.7984
32.1163
28.9759
26.886
25.4126
24.2873
23.3571
22.5359
21.7745
21.0433
20.3233
19.6022
18.8739
18.1384
17.3985
16.6577
15.9203
15.1905
14.4692
13.755
13.0457
12.3394
11.6345
10.9302
10.2259
9.52157
8.81699
8.11218
7.40718
6.70202
5.99675
5.29138
4.58596
3.88049
3.17498
2.46946
1.76391
1.05836
0.352796
42.8331
37.0171
32.2403
29.0406
26.9165
25.4244
24.2893
23.3545
22.5318
21.7705
21.0401
20.3211
19.6008
18.8726
18.1368
17.3965
16.6552
15.9173
15.1874
14.4664
13.7527
13.044
12.3382
11.6337
10.9297
10.2257
9.52143
8.81693
8.11217
7.40719
6.70205
5.99677
5.29141
4.58598
3.8805
3.175
2.46947
1.76392
1.05836
0.352797
42.8331
37.0171
32.2403
29.0406
26.9165
25.4244
24.2893
23.3545
22.5318
21.7705
21.0401
20.3211
19.6008
18.8726
18.1369
17.3965
16.6552
15.9173
15.1875
14.4665
13.7528
13.044
12.3382
11.6337
10.9297
10.2257
9.52144
8.81694
8.11218
7.4072
6.70205
5.99678
5.29141
4.58598
3.88051
3.175
2.46947
1.76392
1.05836
0.352797
42.4981
36.7985
32.1163
28.9759
26.886
25.4126
24.2873
23.3571
22.5359
21.7745
21.0433
20.3233
19.6023
18.8739
18.1385
17.3986
16.6578
15.9204
15.1906
14.4693
13.7551
13.0458
12.3394
11.6345
10.9302
10.226
9.52161
8.81701
8.1122
7.4072
6.70203
5.99676
5.29139
4.58596
3.88049
3.17498
2.46946
1.76391
1.05836
0.352796
41.8355
36.3684
31.8746
28.8514
26.8284
25.3915
24.2848
23.3631
22.5447
21.783
21.0499
20.3278
19.6054
18.8766
18.1416
17.4025
16.6627
15.926
15.1963
14.4745
13.7593
13.049
12.3417
11.6361
10.9312
10.2265
9.52191
8.81715
8.11224
7.40718
6.702
5.99671
5.29135
4.58592
3.88046
3.17496
2.46944
1.7639
1.05835
0.352794
40.8618
35.743
31.5285
28.6773
26.7511
25.3658
24.2848
23.3743
22.5591
21.7964
21.0604
20.3352
19.6104
18.8808
18.146
17.4079
16.6692
15.9335
15.2039
14.4813
13.7649
13.0532
12.3447
11.6381
10.9324
10.2273
9.52229
8.81732
8.11228
7.40716
6.70194
5.99665
5.29129
4.58587
3.88041
3.17492
2.46941
1.76388
1.05834
0.352791
39.6059
34.9499
31.1004
28.47
26.6652
25.3426
24.2915
23.393
22.5803
21.8154
21.0752
20.3457
19.6177
18.8866
18.1516
17.4141
16.6765
15.9417
15.2121
14.4886
13.771
13.0578
12.348
11.6402
10.9338
10.228
9.52268
8.81748
8.11231
7.40712
6.70187
5.99657
5.29121
4.58581
3.88036
3.17488
2.46938
1.76386
1.05833
0.352787
38.1161
34.0335
30.625
28.2536
26.5859
25.3307
24.3094
23.4211
22.6089
21.8399
21.0942
20.3592
19.6271
18.8937
18.1579
17.4206
16.6837
15.9494
15.2197
14.4955
13.7766
13.0621
12.351
11.6422
10.935
10.2287
9.52302
8.8176
8.11231
7.40706
6.70179
5.99648
5.29113
4.58574
3.88031
3.17484
2.46935
1.76384
1.05832
0.352783
36.4744
33.0646
30.153
28.0602
26.5315
25.3392
24.3421
23.4593
22.6441
21.8687
21.1159
20.3747
19.6378
18.9015
18.1642
17.4265
16.6897
15.9556
15.2257
14.5008
13.7809
13.0654
12.3532
11.6437
10.9359
10.2292
9.52321
8.81764
8.11227
7.40698
6.7017
5.9964
5.29106
4.58568
3.88026
3.17481
2.46933
1.76383
1.05831
0.35278
34.8242
32.1559
29.7558
27.9286
26.5196
25.3737
24.3891
23.5043
22.6819
21.8981
21.1375
20.3898
19.6481
18.9086
18.1695
17.431
16.6938
15.9595
15.2294
14.504
13.7834
13.0672
12.3545
11.6444
10.9362
10.2293
9.52322
8.81757
8.11216
7.40687
6.7016
5.99631
5.29099
4.58563
3.88022
3.17478
2.46931
1.76381
1.0583
0.352777
33.4244
31.4816
29.5243
27.8949
26.5576
25.4288
24.4408
23.5465
22.714
21.9214
21.1539
20.4008
19.6554
18.9133
18.1726
17.433
16.6953
15.9606
15.2302
14.5045
13.7837
13.0672
12.3543
11.6442
10.936
10.2291
9.52298
8.81737
8.112
7.40674
6.7015
5.99624
5.29094
4.58559
3.8802
3.17476
2.4693
1.76381
1.0583
0.352775
32.7231
31.2887
29.5486
27.9703
26.6263
25.4785
24.4733
23.5666
22.7259
21.9283
21.1578
20.403
19.6565
18.9136
18.1721
17.4318
16.6935
15.9584
15.2277
14.502
13.7814
13.0652
12.3527
11.6429
10.935
10.2284
9.5225
8.81704
8.11179
7.40661
6.70142
5.9962
5.29092
4.58558
3.88019
3.17476
2.4693
1.76381
1.0583
0.352776
30.8003
30.1373
28.9955
27.7478
26.5608
25.4791
24.4974
23.5958
22.753
21.9513
21.1763
20.4176
19.6676
18.9216
18.1773
17.4346
16.6942
15.9576
15.2261
14.5001
13.7795
13.0636
12.3515
11.642
10.9344
10.228
9.52228
8.81692
8.11173
7.40659
6.70142
5.99621
5.29093
4.5856
3.88021
3.17478
2.46931
1.76382
1.05831
0.352782
30.9318
30.1655
28.9499
27.6847
26.5068
25.4409
24.4733
23.5817
22.7453
21.947
21.1739
20.416
19.6666
18.9214
18.1781
17.4366
16.6974
15.9617
15.2306
14.5046
13.7837
13.0672
12.3543
11.6442
10.936
10.2292
9.52306
8.81744
8.11206
7.40679
6.70154
5.99627
5.29096
4.5856
3.88021
3.17477
2.4693
1.76381
1.0583
0.352778
31.4493
30.5037
29.1051
27.7299
26.5006
25.4162
24.4455
23.557
22.7254
21.9319
21.1628
20.4082
19.6613
18.9179
18.1761
17.4356
16.6972
15.9621
15.2314
14.5057
13.7849
13.0685
12.3555
11.6453
10.9369
10.2298
9.52357
8.81781
8.11233
7.40698
6.70167
5.99635
5.29101
4.58564
3.88023
3.17478
2.46931
1.76381
1.0583
0.352778
32.1819
31.0231
29.3917
27.8579
26.5401
25.4127
24.4247
23.5318
22.7018
21.9124
21.1478
20.3974
19.6538
18.9126
18.1721
17.4323
16.6943
15.9594
15.2291
14.5039
13.7837
13.0678
12.3553
11.6453
10.9371
10.2301
9.52382
8.81805
8.11253
7.40714
6.7018
5.99645
5.29109
4.58569
3.88026
3.17481
2.46932
1.76382
1.05831
0.35278
32.9804
31.6143
29.7437
28.0363
26.6135
25.4298
24.4149
23.5117
22.68
21.893
21.1326
20.3864
19.646
18.9067
18.1671
17.4275
16.6893
15.9542
15.2242
14.4998
13.7806
13.0656
12.3539
11.6445
10.9367
10.23
9.52387
8.81817
8.11268
7.40728
6.70192
5.99656
5.29117
4.58576
3.88031
3.17484
2.46935
1.76384
1.05831
0.352783
33.7443
32.1964
30.1066
28.233
26.7051
25.4614
24.4156
23.4985
22.6626
21.8766
21.1194
20.377
19.6395
18.9014
18.1619
17.422
16.683
15.9472
15.2174
14.494
13.7762
13.0625
12.3518
11.6432
10.936
10.2296
9.52377
8.8182
8.11277
7.4074
6.70204
5.99666
5.29126
4.58583
3.88037
3.17488
2.46938
1.76386
1.05832
0.352785
34.4098
32.7135
30.4386
28.4209
26.7987
25.4993
24.4231
23.4915
22.6502
21.864
21.1092
20.37
19.6348
18.8971
18.1572
17.4164
16.6763
15.9394
15.2099
14.4877
13.7712
13.0589
12.3494
11.6417
10.9351
10.2292
9.52358
8.81817
8.11283
7.40749
6.70214
5.99676
5.29134
4.58589
3.88042
3.17492
2.46941
1.76388
1.05833
0.352787
34.9367
33.1283
30.7103
28.579
26.8809
25.5354
24.4334
23.4887
22.6422
21.8552
21.1021
20.3653
19.6319
18.894
18.1533
17.4116
16.6702
15.9322
15.2028
14.4817
13.7667
13.0557
12.3472
11.6403
10.9343
10.2287
9.52339
8.81812
8.11286
7.40756
6.70222
5.99684
5.29141
4.58595
3.88047
3.17496
2.46943
1.76389
1.05834
0.352789
35.2997
33.4166
30.9015
28.6922
26.9413
25.5632
24.4426
23.4883
22.6377
21.8498
21.0976
20.3624
19.6301
18.8918
18.1504
17.408
16.6657
15.9268
15.1975
14.4772
13.7632
13.0532
12.3455
11.6392
10.9337
10.2284
9.52323
8.81808
8.11288
7.40761
6.70228
5.9969
5.29146
4.586
3.8805
3.17498
2.46945
1.7639
1.05835
0.352791
35.4846
33.564
31
28.7511
26.9731
25.5782
24.4479
23.4885
22.6356
21.8473
21.0956
20.3611
19.6292
18.8907
18.1489
17.4061
16.6633
15.9239
15.1946
14.4747
13.7613
13.0518
12.3446
11.6387
10.9333
10.2282
9.52315
8.81806
8.11289
7.40764
6.70231
5.99693
5.29149
4.58602
3.88052
3.175
2.46946
1.76391
1.05835
0.352791
35.4846
33.5641
31
28.7511
26.9732
25.5782
24.4479
23.4885
22.6356
21.8473
21.0956
20.3611
19.6292
18.8907
18.149
17.4061
16.6634
15.9239
15.1946
14.4748
13.7613
13.0519
12.3447
11.6387
10.9333
10.2282
9.52316
8.81807
8.1129
7.40764
6.70232
5.99693
5.29149
4.58602
3.88052
3.175
2.46946
1.76391
1.05835
0.352791
35.2998
33.4166
30.9015
28.6922
26.9413
25.5632
24.4426
23.4883
22.6377
21.8498
21.0977
20.3624
19.6301
18.8918
18.1505
17.408
16.6658
15.9268
15.1975
14.4772
13.7633
13.0532
12.3456
11.6393
10.9337
10.2284
9.52326
8.8181
8.1129
7.40763
6.70229
5.9969
5.29147
4.586
3.8805
3.17498
2.46945
1.7639
1.05835
0.35279
34.9367
33.1283
30.7103
28.579
26.8809
25.5354
24.4334
23.4887
22.6422
21.8552
21.1021
20.3653
19.6319
18.894
18.1533
17.4117
16.6703
15.9323
15.2029
14.4818
13.7668
13.0558
12.3473
11.6404
10.9344
10.2288
9.52344
8.81816
8.11289
7.40759
6.70224
5.99685
5.29142
4.58596
3.88047
3.17496
2.46943
1.76389
1.05834
0.352788
34.4099
32.7136
30.4386
28.421
26.7987
25.4993
24.4231
23.4914
22.6502
21.864
21.1092
20.37
19.6349
18.8972
18.1573
17.4165
16.6764
15.9395
15.21
14.4878
13.7714
13.0591
12.3495
11.6418
10.9352
10.2293
9.52365
8.81822
8.11287
7.40752
6.70217
5.99678
5.29136
4.5859
3.88043
3.17492
2.46941
1.76388
1.05833
0.352786
33.7443
32.1964
30.1066
28.233
26.7051
25.4614
24.4155
23.4985
22.6626
21.8766
21.1194
20.377
19.6396
18.9015
18.162
17.4221
16.6831
15.9473
15.2175
14.4942
13.7763
13.0626
12.3519
11.6433
10.9361
10.2297
9.52384
8.81826
8.11282
7.40744
6.70207
5.99668
5.29128
4.58584
3.88037
3.17489
2.46938
1.76386
1.05832
0.352783
32.9804
31.6143
29.7437
28.0362
26.6135
25.4298
24.4149
23.5117
22.68
21.893
21.1326
20.3864
19.6461
18.9068
18.1672
17.4276
16.6894
15.9543
15.2243
14.4999
13.7807
13.0658
12.354
11.6446
10.9368
10.2301
9.52395
8.81824
8.11273
7.40733
6.70196
5.99658
5.29119
4.58577
3.88032
3.17485
2.46935
1.76384
1.05831
0.352781
32.1818
31.0231
29.3916
27.8578
26.54
25.4127
24.4246
23.5317
22.7018
21.9123
21.1478
20.3974
19.6538
18.9126
18.1722
17.4324
16.6944
15.9595
15.2292
14.5041
13.7839
13.068
12.3554
11.6454
10.9372
10.2302
9.52391
8.81812
8.11259
7.40719
6.70183
5.99648
5.2911
4.5857
3.88027
3.17481
2.46932
1.76382
1.0583
0.352778
31.4492
30.5036
29.1049
27.7298
26.5005
25.4161
24.4455
23.557
22.7254
21.9319
21.1628
20.4082
19.6614
18.918
18.1762
17.4357
16.6973
15.9622
15.2316
14.5059
13.7851
13.0686
12.3557
11.6454
10.937
10.2299
9.52366
8.81788
8.11238
7.40702
6.7017
5.99637
5.29103
4.58565
3.88023
3.17478
2.46931
1.76381
1.0583
0.352776
30.9315
30.1653
28.9497
27.6845
26.5067
25.4409
24.4732
23.5816
22.7452
21.947
21.1739
20.4161
19.6667
18.9214
18.1782
17.4367
16.6975
15.9618
15.2307
14.5048
13.7838
13.0674
12.3545
11.6444
10.9362
10.2293
9.52314
8.8175
8.11211
7.40682
6.70156
5.99629
5.29097
4.58561
3.88021
3.17477
2.4693
1.76381
1.0583
0.352775
30.7999
30.1369
28.9952
27.7476
26.5606
25.479
24.4974
23.5958
22.753
21.9513
21.1764
20.4177
19.6677
18.9217
18.1774
17.4347
16.6944
15.9578
15.2262
14.5002
13.7797
13.0638
12.3516
11.6422
10.9345
10.2281
9.52236
8.81698
8.11178
7.40662
6.70145
5.99622
5.29094
4.5856
3.88021
3.17477
2.46931
1.76382
1.0583
0.352778
29.3776
29.0238
28.2772
27.3366
26.3463
25.3785
24.4584
23.5882
22.7605
21.9651
21.1921
20.433
19.6811
18.9323
18.1847
17.4386
16.6952
15.9562
15.2232
14.4968
13.7764
13.0611
12.3496
11.6407
10.9336
10.2275
9.52203
8.81682
8.11171
7.40661
6.70147
5.99625
5.29098
4.58563
3.88024
3.1748
2.46933
1.76383
1.05832
0.352785
29.339
28.9873
28.2199
27.2764
26.2961
25.342
24.4343
23.5733
22.7514
21.9592
21.1879
20.4296
19.6785
18.9309
18.185
17.4408
16.6993
15.9619
15.2297
14.5032
13.7823
13.0661
12.3535
11.6437
10.9358
10.2291
9.52306
8.81749
8.11214
7.40687
6.70161
5.99633
5.29101
4.58564
3.88023
3.17479
2.46932
1.76382
1.05831
0.35278
29.4859
29.124
28.2963
27.3025
26.2934
25.3268
24.4159
23.556
22.7368
21.9476
21.1789
20.423
19.6738
18.9278
18.1833
17.4404
16.7
15.9633
15.2317
14.5057
13.7848
13.0685
12.3557
11.6455
10.9372
10.2301
9.52383
8.81804
8.11251
7.40712
6.70178
5.99644
5.29107
4.58568
3.88025
3.1748
2.46932
1.76382
1.0583
0.352779
29.7843
29.3848
28.4675