# vtk DataFile Version 2.0
I need something to put here
ASCII

DATASET STRUCTURED_GRID
DIMENSIONS 41 21 21
POINTS 18081 float
0.000000 0.000000 0.000000
0.100000 0.000000 0.000000
0.200000 0.000000 0.000000
0.300000 0.000000 0.000000
0.400000 0.000000 0.000000
0.500000 0.000000 0.000000
0.600000 0.000000 0.000000
0.700000 0.000000 0.000000
0.800000 0.000000 0.000000
0.900000 0.000000 0.000000
1.000000 0.000000 0.000000
1.100000 0.000000 0.000000
1.200000 0.000000 0.000000
1.300000 0.000000 0.000000
1.400000 0.000000 0.000000
1.500000 0.000000 0.000000
1.600000 0.000000 0.000000
1.700000 0.000000 0.000000
1.800000 0.000000 0.000000
1.900000 0.000000 0.000000
2.000000 0.000000 0.000000
2.100000 0.000000 0.000000
2.200000 0.000000 0.000000
2.300000 0.000000 0.000000
2.400000 0.000000 0.000000
2.500000 0.000000 0.000000
2.600000 0.000000 0.000000
2.700000 0.000000 0.000000
2.800000 0.000000 0.000000
2.900000 0.000000 0.000000
3.000000 0.000000 0.000000
3.100000 0.000000 0.000000
3.200000 0.000000 0.000000
3.300000 0.000000 0.000000
3.400000 0.000000 0.000000
3.500000 0.000000 0.000000
3.600000 0.000000 0.000000
3.700000 0.000000 0.000000
3.800000 0.000000 0.000000
3.900000 0.000000 0.000000
4.000000 0.000000 0.000000
0.000000 0.100000 0.000000
0.100000 0.100000 0.000000
0.200000 0.100000 0.000000
0.300000 0.100000 0.000000
0.400000 0.100000 0.000000
0.500000 0.100000 0.000000
0.600000 0.100000 0.000000
0.700000 0.100000 0.000000
0.800000 0.100000 0.000000
0.900000 0.100000 0.000000
1.000000 0.100000 0.000000
1.100000 0.100000 0.000000
1.200000 0.100000 0.000000
1.300000 0.100000 0.000000
1.400000 0.100000 0.000000
1.500000 0.100000 0.000000
1.600000 0.100000 0.000000
1.700000 0.100000 0.000000
1.800000 0.100000 0.000000
1.900000 0.100000 0.000000
2.000000 0.100000 0.000000
2.100000 0.100000 0.000000
2.200000 0.100000 0.000000
2.300000 0.100000 0.000000
2.400000 0.100000 0.000000
2.500000 0.100000 0.000000
2.600000 0.100000 0.000000
2.700000 0.100000 0.000000
2.800000 0.100000 0.000000
2.900000 0.100000 0.000000
3.000000 0.100000 0.000000
3.100000 0.100000 0.000000
3.200000 0.100000 0.000000
3.300000 0.100000 0.000000
3.400000 0.100000 0.000000
3.500000 0.100000 0.000000
3.600000 0.100000 0.000000
3.700000 0.100000 0.000000
3.800000 0.100000 0.000000
3.900000 0.100000 0.000000
4.000000 0.100000 0.000000
0.000000 0.200000 0.000000
0.100000 0.200000 0.000000
0.200000 0.200000 0.000000
0.300000 0.200000 0.000000
0.400000 0.200000 0.000000
0.500000 0.200000 0.000000
0.600000 0.200000 0.000000
0.700000 0.200000 0.000000
0.800000 0.200000 0.000000
0.900000 0.200000 0.000000
1.000000 0.200000 0.000000
1.100000 0.200000 0.000000
1.200000 0.200000 0.000000
1.300000 0.200000 0.000000
1.400000 0.200000 0.000000
1.500000 0.200000 0.000000
1.600000 0.200000 0.000000
1.700000 0.200000 0.000000
1.800000 0.200000 0.000000
1.900000 0.200000 0.000000
2.000000 0.200000 0.000000
2.100000 0.200000 0.000000
2.200000 0.200000 0.000000
2.300000 0.200000 0.000000
2.400000 0.200000 0.000000
2.500000 0.200000 0.000000
2.600000 0.200000 0.000000
2.700000 0.200000 0.000000
2.800000 0.200000 0.000000
2.900000 0.200000 0.000000
3.000000 0.200000 0.000000
3.100000 0.200000 0.000000
3.200000 0.200000 0.000000
3.300000 0.200000 0.000000
3.400000 0.200000 0.000000
3.500000 0.200000 0.000000
3.600000 0.200000 0.000000
3.700000 0.200000 0.000000
3.800000 0.200000 0.000000
3.900000 0.200000 0.000000
4.000000 0.200000 0.000000
0.000000 0.300000 0.000000
0.100000 0.300000 0.000000
0.200000 0.300000 0.000000
0.300000 0.300000 0.000000
0.400000 0.300000 0.000000
0.500000 0.300000 0.000000
0.600000 0.300000 0.000000
0.700000 0.300000 0.000000
0.800000 0.300000 0.000000
0.900000 0.300000 0.000000
1.000000 0.300000 0.000000
1.100000 0.300000 0.000000
1.200000 0.300000 0.000000
1.300000 0.300000 0.000000
1.400000 0.300000 0.000000
1.500000 0.300000 0.000000
1.600000 0.300000 0.000000
1.700000 0.300000 0.000000
1.800000 0.300000 0.000000
1.900000 0.300000 0.000000
2.000000 0.300000 0.000000
2.100000 0.300000 0.000000
2.200000 0.300000 0.000000
2.300000 0.300000 0.000000
2.400000 0.300000 0.000000
2.500000 0.300000 0.000000
2.600000 0.300000 0.000000
2.700000 0.300000 0.000000
2.800000 0.300000 0.000000
2.900000 0.300000 0.000000
3.000000 0.300000 0.000000
3.100000 0.300000 0.000000
3.200000 0.300000 0.000000
3.300000 0.300000 0.000000
3.400000 0.300000 0.000000
3.500000 0.300000 0.000000
3.600000 0.300000 0.000000
3.700000 0.300000 0.000000
3.800000 0.300000 0.000000
3.900000 0.300000 0.000000
4.000000 0.300000 0.000000
0.000000 0.400000 0.000000
0.100000 0.400000 0.000000
0.200000 0.400000 0.000000
0.300000 0.400000 0.000000
0.400000 0.400000 0.000000
0.500000 0.400000 0.000000
0.600000 0.400000 0.000000
0.700000 0.400000 0.000000
0.800000 0.400000 0.000000
0.900000 0.400000 0.000000
1.000000 0.400000 0.000000
1.100000 0.400000 0.000000
1.200000 0.400000 0.000000
1.300000 0.400000 0.000000
1.400000 0.400000 0.000000
1.500000 0.400000 0.000000
1.600000 0.400000 0.000000
1.700000 0.400000 0.000000
1.800000 0.400000 0.000000
1.900000 0.400000 0.000000
2.000000 0.400000 0.000000
2.100000 0.400000 0.000000
2.200000 0.400000 0.000000
2.300000 0.400000 0.000000
2.400000 0.400000 0.000000
2.500000 0.400000 0.000000
2.600000 0.400000 0.000000
2.700000 0.400000 0.000000
2.800000 0.400000 0.000000
2.900000 0.400000 0.000000
3.000000 0.400000 0.000000
3.100000 0.400000 0.000000
3.200000 0.400000 0.000000
3.300000 0.400000 0.000000
3.400000 0.400000 0.000000
3.500000 0.400000 0.000000
3.600000 0.400000 0.000000
3.700000 0.400000 0.000000
3.800000 0.400000 0.000000
3.900000 0.400000 0.000000
4.000000 0.400000 0.000000
0.000000 0.500000 0.000000
0.100000 0.500000 0.000000
0.200000 0.500000 0.000000
0.300000 0.500000 0.000000
0.400000 0.500000 0.000000
0.500000 0.500000 0.000000
0.600000 0.500000 0.000000
0.700000 0.500000 0.000000
0.800000 0.500000 0.000000
0.900000 0.500000 0.000000
1.000000 0.500000 0.000000
1.100000 0.500000 0.000000
1.200000 0.500000 0.000000
1.300000 0.500000 0.000000
1.400000 0.500000 0.000000
1.500000 0.500000 0.000000
1.600000 0.500000 0.000000
1.700000 0.500000 0.000000
1.800000 0.500000 0.000000
1.900000 0.500000 0.000000
2.000000 0.500000 0.000000
2.100000 0.500000 0.000000
2.200000 0.500000 0.000000
2.300000 0.500000 0.000000
2.400000 0.500000 0.000000
2.500000 0.500000 0.000000
2.600000 0.500000 0.000000
2.700000 0.500000 0.000000
2.800000 0.500000 0.000000
2.900000 0.500000 0.000000
3.000000 0.500000 0.000000
3.100000 0.500000 0.000000
3.200000 0.500000 0.000000
3.300000 0.500000 0.000000
3.400000 0.500000 0.000000
3.500000 0.500000 0.000000
3.600000 0.500000 0.000000
3.700000 0.500000 0.000000
3.800000 0.500000 0.000000
3.900000 0.500000 0.000000
4.000000 0.500000 0.000000
0.000000 0.600000 0.000000
0.100000 0.600000 0.000000
0.200000 0.600000 0.000000
0.300000 0.600000 0.000000
0.400000 0.600000 0.000000
0.500000 0.600000 0.000000
0.600000 0.600000 0.000000
0.700000 0.600000 0.000000
0.800000 0.600000 0.000000
0.900000 0.600000 0.000000
1.000000 0.600000 0.000000
1.100000 0.600000 0.000000
1.200000 0.600000 0.000000
1.300000 0.600000 0.000000
1.400000 0.600000 0.000000
1.500000 0.600000 0.000000
1.600000 0.600000 0.000000
1.700000 0.600000 0.000000
1.800000 0.600000 0.000000
1.900000 0.600000 0.000000
2.000000 0.600000 0.000000
2.100000 0.600000 0.000000
2.200000 0.600000 0.000000
2.300000 0.600000 0.000000
2.400000 0.600000 0.000000
2.500000 0.600000 0.000000
2.600000 0.600000 0.000000
2.700000 0.600000 0.000000
2.800000 0.600000 0.000000
2.900000 0.600000 0.000000
3.000000 0.600000 0.000000
3.100000 0.600000 0.000000
3.200000 0.600000 0.000000
3.300000 0.600000 0.000000
3.400000 0.600000 0.000000
3.500000 0.600000 0.000000
3.600000 0.600000 0.000000
3.700000 0.600000 0.000000
3.800000 0.600000 0.000000
3.900000 0.600000 0.000000
4.000000 0.600000 0.000000
0.000000 0.700000 0.000000
0.100000 0.700000 0.000000
0.200000 0.700000 0.000000
0.300000 0.700000 0.000000
0.400000 0.700000 0.000000
0.500000 0.700000 0.000000
0.600000 0.700000 0.000000
0.700000 0.700000 0.000000
0.800000 0.700000 0.000000
0.900000 0.700000 0.000000
1.000000 0.700000 0.000000
1.100000 0.700000 0.000000
1.200000 0.700000 0.000000
1.300000 0.700000 0.000000
1.400000 0.700000 0.000000
1.500000 0.700000 0.000000
1.600000 0.700000 0.000000
1.700000 0.700000 0.000000
1.800000 0.700000 0.000000
1.900000 0.700000 0.000000
2.000000 0.700000 0.000000
2.100000 0.700000 0.000000
2.200000 0.700000 0.000000
2.300000 0.700000 0.000000
2.400000 0.700000 0.000000
2.500000 0.700000 0.000000
2.600000 0.700000 0.000000
2.700000 0.700000 0.000000
2.800000 0.700000 0.000000
2.900000 0.700000 0.000000
3.000000 0.700000 0.000000
3.100000 0.700000 0.000000
3.200000 0.700000 0.000000
3.300000 0.700000 0.000000
3.400000 0.700000 0.000000
3.500000 0.700000 0.000000
3.600000 0.700000 0.000000
3.700000 0.700000 0.000000
3.800000 0.700000 0.000000
3.900000 0.700000 0.000000
4.000000 0.700000 0.000000
0.000000 0.800000 0.000000
0.100000 0.800000 0.000000
0.200000 0.800000 0.000000
0.300000 0.800000 0.000000
0.400000 0.800000 0.000000
0.500000 0.800000 0.000000
0.600000 0.800000 0.000000
0.700000 0.800000 0.000000
0.800000 0.800000 0.000000
0.900000 0.800000 0.000000
1.000000 0.800000 0.000000
1.100000 0.800000 0.000000
1.200000 0.800000 0.000000
1.300000 0.800000 0.000000
1.400000 0.800000 0.000000
1.500000 0.800000 0.000000
1.600000 0.800000 0.000000
1.700000 0.800000 0.000000
1.800000 0.800000 0.000000
1.900000 0.800000 0.000000
2.000000 0.800000 0.000000
2.100000 0.800000 0.000000
2.200000 0.800000 0.000000
2.300000 0.800000 0.000000
2.400000 0.800000 0.000000
2.500000 0.800000 0.000000
2.600000 0.800000 0.000000
2.700000 0.800000 0.000000
2.800000 0.800000 0.000000
2.900000 0.800000 0.000000
3.000000 0.800000 0.000000
3.100000 0.800000 0.000000
3.200000 0.800000 0.000000
3.300000 0.800000 0.000000
3.400000 0.800000 0.000000
3.500000 0.800000 0.000000
3.600000 0.800000 0.000000
[...]
CELL_DATA 16000
SCALARS pressure float 1
LOOKUP_TABLE default
34.8478
31.7246
29.3869
27.6427
26.2774
25.1484
24.1687
23.2851
22.4643
21.6844
20.9306
20.1929
19.4645
18.7409
18.0199
17.3007
16.5833
15.8683
15.156
14.4465
13.7396
13.0346
12.3309
11.6279
10.925
10.222
9.51871
8.815
8.11089
7.40643
6.70168
5.99668
5.2915
4.58618
3.88075
3.17525
2.4697
1.76411
1.05849
0.352848
37.1988
32.0844
29.27
27.4613
26.1275
25.0411
24.096
23.2373
22.4335
21.665
20.9188
20.186
19.4606
18.739
18.0191
17.3005
16.5834
15.8684
15.1561
14.4467
13.7398
13.0349
12.3312
11.6281
10.9252
10.2222
9.51882
8.81508
8.11095
7.40647
6.7017
5.9967
5.29151
4.58618
3.88075
3.17525
2.4697
1.76411
1.05849
0.352851
40.5574
33.0619
29.4284
27.3715
25.9864
24.9105
23.9912
23.1583
22.3762
21.6246
20.8911
20.1676
19.4487
18.7313
18.0141
17.2969
16.5806
15.8661
15.1543
14.4453
13.7389
13.0344
12.331
11.6282
10.9254
10.2224
9.51908
8.81531
8.11115
7.40663
6.70182
5.99679
5.29157
4.58623
3.88078
3.17527
2.46971
1.76412
1.0585
0.352858
44.0581
34.307
29.7878
27.4018
25.9076
24.8076
23.8949
23.0782
22.3136
21.5777
20.8574
20.1442
19.4328
18.7205
18.0064
17.2909
16.5754
15.8615
15.1504
14.4422
13.7367
13.0331
12.3304
11.6281
10.9256
10.2228
9.51945
8.81567
8.11146
7.40689
6.70202
5.99694
5.29169
4.58631
3.88084
3.17531
2.46974
1.76414
1.05852
0.352866
47.3297
35.5905
30.2406
27.5144
25.8872
24.7416
23.8202
23.0097
22.2564
21.533
20.8241
20.1205
19.4165
18.709
17.9976
17.2834
16.5685
15.8551
15.1447
14.4378
13.7336
13.0312
12.3295
11.6278
10.9258
10.2231
9.51991
8.81612
8.11185
7.40721
6.70228
5.99714
5.29183
4.58641
3.88092
3.17536
2.46978
1.76416
1.05853
0.352872
50.1944
36.7786
30.7044
27.6655
25.9051
24.7062
23.7675
22.9561
22.2091
21.4946
20.7949
20.0995
19.4017
18.6983
17.989
17.2756
16.5608
15.8476
15.138
14.4324
13.7298
13.0288
12.3283
11.6275
10.9259
10.2236
9.52042
8.81662
8.1123
7.40758
6.70258
5.99736
5.292
4.58653
3.881
3.17542
2.46982
1.76419
1.05854
0.352877
52.5576
37.7923
31.1241
27.8206
25.9419
24.6914
23.7328
22.9168
22.1725
21.4639
20.7713
20.0825
19.3898
18.6895
17.9814
17.2682
16.5532
15.8399
15.131
14.4267
13.7258
13.0265
12.3272
11.6272
10.9261
10.224
9.52095
8.81713
8.11275
7.40796
6.70287
5.99759
5.29217
4.58666
3.88109
3.17548
2.46986
1.76421
1.05856
0.352881
54.3652
38.5843
31.4638
27.9551
25.9818
24.6882
23.7115
22.8898
22.1461
21.4414
20.7538
20.0699
19.381
18.6828
17.9755
17.262
16.5465
15.833
15.1247
14.4217
13.7223
13.0244
12.3262
11.6269
10.9263
10.2244
9.52143
8.8176
8.11316
7.40829
6.70313
5.99779
5.29231
4.58676
3.88116
3.17554
2.46989
1.76424
1.05857
0.352884
55.5851
39.1258
31.7012
28.0528
26.0141
24.6898
23.6995
22.873
22.1292
21.4266
20.7422
20.0616
19.3753
18.6784
17.9713
17.2576
16.5416
15.8279
15.12
14.4179
13.7197
13.0228
12.3255
11.6268
10.9265
10.2247
9.52179
8.81795
8.11346
7.40854
6.70333
5.99794
5.29243
4.58684
3.88122
3.17557
2.46992
1.76425
1.05858
0.352886
56.1991
39.4003
31.8229
28.1039
26.0318
24.6916
23.6941
22.8649
22.1209
21.4193
20.7364
20.0575
19.3724
18.6761
17.9692
17.2553
16.539
15.8252
15.1175
14.4159
13.7183
13.022
12.3251
11.6267
10.9266
10.2249
9.522
8.81814
8.11363
7.40868
6.70344
5.99802
5.29249
4.58689
3.88125
3.1756
2.46993
1.76426
1.05858
0.352887
56.1991
39.4003
31.8229
28.1039
26.0318
24.6916
23.6941
22.8649
22.1209
21.4193
20.7364
20.0574
19.3724
18.6761
17.9692
17.2553
16.539
15.8252
15.1175
14.4159
13.7183
13.022
12.3251
11.6267
10.9266
10.2249
9.522
8.81814
8.11363
7.40868
6.70344
5.99802
5.29249
4.58689
3.88125
3.1756
2.46993
1.76426
1.05858
0.352887
55.5851
39.1258
31.7012
28.0528
26.014
24.6897
23.6994
22.8729
22.1291
21.4266
20.7422
20.0616
19.3752
18.6783
17.9713
17.2576
16.5416
15.8279
15.12
14.4179
13.7197
13.0228
12.3255
11.6268
10.9265
10.2248
9.52181
8.81796
8.11347
7.40855
6.70334
5.99794
5.29243
4.58685
3.88122
3.17558
2.46992
1.76425
1.05858
0.352886
54.3652
38.5843
31.4638
27.9551
25.9818
24.6882
23.7114
22.8897
22.1461
21.4413
20.7537
20.0698
19.381
18.6828
17.9755
17.262
16.5465
15.833
15.1247
14.4217
13.7223
13.0244
12.3262
11.627
10.9264
10.2244
9.52144
8.81761
8.11317
7.4083
6.70314
5.99779
5.29232
4.58677
3.88117
3.17554
2.46989
1.76424
1.05857
0.352884
52.5576
37.7923
31.124
27.8206
25.9418
24.6913
23.7328
22.9167
22.1724
21.4639
20.7713
20.0825
19.3898
18.6894
17.9814
17.2682
16.5532
15.8399
15.131
14.4268
13.7259
13.0265
12.3272
11.6272
10.9262
10.224
9.52097
8.81715
8.11277
7.40797
6.70288
5.99759
5.29217
4.58666
3.88109
3.17548
2.46986
1.76421
1.05856
0.352881
50.1944
36.7785
30.7044
27.6655
25.9051
24.7061
23.7674
22.956
22.209
21.4945
20.7949
20.0994
19.4017
18.6983
17.9889
17.2755
16.5608
15.8476
15.138
14.4324
13.7298
13.0289
12.3284
11.6275
10.926
10.2236
9.52045
8.81664
8.11232
7.4076
6.70259
5.99737
5.292
4.58654
3.881
3.17543
2.46982
1.76419
1.05854
0.352877
47.3297
35.5905
30.2405
27.5143
25.8871
24.7415
23.8201
23.0096
22.2564
21.533
20.8241
20.1205
19.4164
18.7089
17.9975
17.2834
16.5685
15.8551
15.1447
14.4378
13.7336
13.0312
12.3295
11.6279
10.9258
10.2232
9.51994
8.81614
8.11187
7.40723
6.7023
5.99715
5.29184
4.58642
3.88092
3.17537
2.46978
1.76416
1.05853
0.352872
44.0581
34.3069
29.7877
27.4017
25.9076
24.8075
23.8948
23.0782
22.3135
21.5777
20.8573
20.1441
19.4328
18.7205
18.0063
17.2908
16.5754
15.8615
15.1504
14.4423
13.7368
13.0331
12.3305
11.6281
10.9256
10.2228
9.51948
8.8157
8.11148
7.4069
6.70204
5.99695
5.29169
4.58631
3.88084
3.17531
2.46974
1.76414
1.05851
0.352865
40.5573
33.0618
29.4282
27.3714
25.9862
24.9104
23.9911
23.1583
22.3761
21.6245
20.891
20.1675
19.4486
18.7313
18.014
17.2969
16.5806
15.8661
15.1543
14.4453
13.7389
13.0344
12.331
11.6282
10.9255
10.2225
9.51911
8.81534
8.11117
7.40665
6.70184
5.9968
5.29158
4.58623
3.88079
3.17527
2.46971
1.76412
1.0585
0.352858
37.1986
32.0842
29.2699
27.4611
26.1274
25.041
24.0959
23.2372
22.4334
21.6649
20.9187
20.1859
19.4606
18.7389
18.0191
17.3004
16.5833
15.8684
15.1561
14.4467
13.7398
13.0349
12.3312
11.6281
10.9253
10.2222
9.51885
8.8151
8.11097
7.40649
6.70171
5.9967
5.29151
4.58618
3.88075
3.17525
2.4697
1.76411
1.05849
0.352851
34.8474
31.7243
29.3868
27.6425
26.2773
25.1483
24.1686
23.285
22.4643
21.6843
20.9306
20.1929
19.4644
18.7409
18.0199
17.3007
16.5833
15.8683
15.156
14.4465
13.7396
13.0346
12.331
11.6279
10.9251
10.2221
9.51874
8.81502
8.11091
7.40645
6.70169
5.99669
5.29151
4.58618
3.88075
3.17525
2.4697
1.76411
1.05849
0.352847
32.4802
31.0455
29.3053
27.7271
26.3839
25.2374
24.2346
23.3314
22.4958
21.7054
20.9444
20.2018
19.4701
18.7443
18.0219
17.3017
16.5837
15.8683
15.1558
14.4463
13.7394
13.0345
12.3309
11.6279
10.925
10.222
9.51872
8.815
8.11089
7.40643
6.70168
5.99668
5.2915
4.58617
3.88075
3.17525
2.4697
1.76411
1.05849
0.352851
33.1815
31.2385
29.2811
27.6521
26.3155
25.1882
24.2027
23.3121
22.4848
21.6996
20.9416
20.2007
19.4699
18.7448
18.0228
17.303
16.5852
15.87
15.1575
14.4478
13.7407
13.0355
12.3316
11.6283
10.9253
10.2222
9.51874
8.81497
8.11084
7.40636
6.70161
5.99662
5.29144
4.58613
3.88071
3.17522
2.46968
1.76409
1.05848
0.352847
34.5813
31.9127
29.5126
27.6857
26.2776
25.1331
24.151
23.2699
22.4527
21.6762
20.9251
20.1895
19.4625
18.7399
18.0197
17.3009
16.5839
15.869
15.1569
14.4475
13.7406
13.0356
12.3318
11.6286
10.9255
10.2224
9.51893
8.81511
8.11094
7.40644
6.70166
5.99665
5.29146
4.58614
3.88072
3.17522
2.46967
1.76409
1.05848
0.352849
36.2313
32.8213
29.9095
27.8171
26.2892
25.0983
24.1035
23.2242
22.414
21.6456
20.9023
20.1731
19.451
18.732
18.0139
17.2965
16.5802
15.8659
15.1543
14.4456
13.7393
13.0349
12.3315
11.6286
10.9258
10.2227
9.51923
8.81539
8.11117
7.40662
6.70179
5.99675
5.29153
4.58619
3.88075
3.17524
2.46969
1.7641
1.05848
0.352853
37.8727
33.7897
30.3811
28.01
26.343
25.089
24.0698
23.1846
22.3771
21.6148
20.8783
20.1554
19.4383
18.7228
18.0068
17.2906
16.5749
15.8611
15.1502
14.4424
13.7371
13.0336
12.3309
11.6285
10.926
10.223
9.51961
8.81575
8.11149
7.40688
6.702
5.9969
5.29165
4.58627
3.88081
3.17528
2.46971
1.76411
1.05849
0.352856
39.3619
34.7056
30.8561
28.2258
26.4214
25.0998
24.0504
23.1547
22.3463
21.5876
20.8564
20.1389
19.4264
18.7138
17.9996
17.2841
16.5688
15.8553
15.1451
14.4384
13.7344
13.0319
12.3302
11.6283
10.9261
10.2234
9.52004
8.81617
8.11186
7.40719
6.70224
5.99709
5.29178
4.58637
3.88088
3.17533
2.46974
1.76413
1.0585
0.352858
40.6172
35.4982
31.2835
28.4323
26.5064
25.1218
24.0422
23.134
22.3226
21.5657
20.8384
20.1253
19.4163
18.7061
17.993
17.2779
16.5626
15.8493
15.1398
14.4342
13.7314
13.0302
12.3293
11.6282
10.9263
10.2238
9.52048
8.8166
8.11223
7.4075
6.70249
5.99728
5.29193
4.58647
3.88095
3.17538
2.46978
1.76415
1.05851
0.352859
41.5903
36.123
31.629
28.6058
26.5829
25.1464
24.0407
23.1208
22.3058
21.5495
20.8248
20.1149
19.4087
18.7
17.9877
17.2727
16.5572
15.8439
15.135
14.4304
13.7288
13.0287
12.3286
11.628
10.9265
10.2241
9.52087
8.81698
8.11257
7.40778
6.70271
5.99745
5.29205
4.58656
3.88101
3.17542
2.46981
1.76417
1.05852
0.352859
42.2524
36.5526
31.8703
28.7297
26.6397
25.1666
24.042
23.1133
22.2952
21.5389
20.8158
20.1079
19.4035
18.6959
17.9839
17.2689
16.5533
15.8399
15.1314
14.4276
13.7269
13.0275
12.3281
11.6279
10.9266
10.2244
9.52118
8.81728
8.11283
7.408
6.70288
5.99758
5.29215
4.58663
3.88106
3.17546
2.46983
1.76419
1.05853
0.352859
42.5871
36.771
31.994
28.7941
26.6699
25.1779
24.0434
23.11
22.29
21.5336
20.8113
20.1044
19.4009
18.6938
17.9819
17.2669
16.5512
15.8378
15.1295
14.4261
13.7259
13.0269
12.3278
11.6278
10.9267
10.2245
9.52134
8.81744
8.11297
7.40811
6.70297
5.99765
5.2922
4.58667
3.88109
3.17548
2.46984
1.76419
1.05853
0.352859
42.5871
36.771
31.994
28.7941
26.6699
25.1779
24.0434
23.11
22.29
21.5336
20.8113
20.1044
19.4009
18.6938
17.9819
17.2669
16.5512
15.8378
15.1295
14.4261
13.7259
13.0269
12.3278
11.6279
10.9267
10.2245
9.52135
8.81744
8.11298
7.40811
6.70298
5.99765
5.2922
4.58667
3.88109
3.17548
2.46984
1.76419
1.05853
0.352859
42.2524
36.5526
31.8703
28.7297
26.6397
25.1666
24.042
23.1133
22.2951
21.5388
20.8158
20.1079
19.4035
18.6959
17.9839
17.2689
16.5533
15.8399
15.1314
14.4276
13.7269
13.0275
12.3281
11.6279
10.9267
10.2244
9.52119
8.81729
8.11284
7.408
6.70289
5.99758
5.29215
4.58664
3.88106
3.17546
2.46983
1.76419
1.05853
0.352859
41.5903
36.123
31.629
28.6057
26.5829
25.1464
24.0407
23.1208
22.3057
21.5494
20.8248
20.1148
19.4086
18.7
17.9877
17.2727
16.5572
15.8439
15.135
14.4304
13.7289
13.0287
12.3286
11.628
10.9265
10.2241
9.52089
8.817
8.11259
7.40779
6.70272
5.99746
5.29206
4.58657
3.88102
3.17542
2.46981
1.76417
1.05852
0.352859
40.6172
35.4982
31.2835
28.4323
26.5064
25.1218
24.0422
23.1339
22.3225
21.5657
20.8384
20.1252
19.4163
18.7061
17.993
17.2779
16.5626
15.8493
15.1398
14.4342
13.7315
13.0302
12.3294
11.6282
10.9264
10.2238
9.5205
8.81662
8.11225
7.40751
6.7025
5.99729
5.29193
4.58648
3.88095
3.17538
2.46978
1.76415
1.05851
0.352858
39.3619
34.7056
30.856
28.2258
26.4214
25.0998
24.0504
23.1546
22.3462
21.5876
20.8564
20.1389
19.4263
18.7138
17.9996
17.2841
16.5688
15.8553
15.1451
14.4384
13.7344
13.032
12.3302
11.6284
10.9262
10.2234
9.52006
8.81619
8.11187
7.4072
6.70225
5.9971
5.29179
4.58637
3.88088
3.17533
2.46975
1.76413
1.0585
0.352857
37.8727
33.7897
30.3811
28.0099
26.3429
25.0889
24.0697
23.1846
22.3771
21.6148
20.8782
20.1553
19.4383
18.7227
18.0068
17.2905
16.5749
15.8611
15.1502
14.4424
13.7372
13.0336
12.331
11.6286
10.926
10.223
9.51964
8.81578
8.11151
7.4069
6.70201
5.99691
5.29165
4.58627
3.88081
3.17528
2.46971
1.76411
1.05849
0.352855
36.2313
32.8212
29.9094
27.817
26.2891
25.0982
24.1034
23.2241
22.4139
21.6455
20.9022
20.173
19.451
18.7319
18.0139
17.2965
16.5802
15.8659
15.1543
14.4456
13.7394
13.0349
12.3316
11.6287
10.9258
10.2227
9.51926
8.81541
8.11119
7.40664
6.70181
5.99676
5.29154
4.58619
3.88075
3.17524
2.46969
1.7641
1.05848
0.352852
34.5811
31.9126
29.5125
27.6856
26.2775
25.133
24.1509
23.2698
22.4527
21.6761
20.9251
20.1894
19.4624
18.7399
18.0196
17.3009
16.5838
15.869
15.1569
14.4475
13.7406
13.0356
12.3318
11.6286
10.9256
10.2224
9.51896
8.81514
8.11096
7.40645
6.70167
5.99665
5.29147
4.58614
3.88072
3.17522
2.46967
1.76409
1.05848
0.352849
33.1812
31.2382
29.2809
27.6519
26.3154
25.1881
24.2026
23.312
22.4848
21.6995
20.9416
20.2006
19.4699
18.7447
18.0227
17.3029
16.5852
15.87
15.1575
14.4478
13.7407
13.0355
12.3316
11.6284
10.9253
10.2222
9.51877
8.81499
8.11085
7.40638
6.70162
5.99662
5.29145
4.58613
3.88071
3.17522
2.46968
1.76409
1.05848
0.352846
32.4798
31.0452
29.3051
27.7269
26.3838
25.2373
24.2345
23.3313
22.4958
21.7054
20.9444
20.2018
19.47
18.7443
18.0219
17.3017
16.5837
15.8683
15.1558
14.4463
13.7394
13.0345
12.3309
11.6279
10.9251
10.2221
9.51874
8.81502
8.11091
7.40645
6.70169
5.99669
5.2915
4.58618
3.88075
3.17525
2.4697
1.76411
1.05849
0.35285
30.557
29.8937
28.7518
27.5043
26.3179
25.2375
24.2581
23.3598
22.5221
21.7273
20.9618
20.2153
19.4802
18.7516
18.0267
17.3045
16.5849
15.8684
15.1553
14.4456
13.7388
13.0341
12.3307
11.6278
10.9251
10.2222
9.51888
8.81516
8.11103
7.40654
6.70176
5.99674
5.29154
4.58621
3.88077
3.17526
2.46971
1.76412
1.0585
0.352857
30.6887
29.9222
28.7065
27.4416
26.2647
25.2003
24.2351
23.3472
22.516
21.725
20.9614
20.2157
19.481
18.7528
18.0283
17.3067
16.5875
15.8713
15.1582
14.4483
13.741
13.0358
12.3318
11.6286
10.9255
10.2223
9.51886
8.81506
8.11089
7.4064
6.70163
5.99662
5.29144
4.58613
3.88071
3.17522
2.46967
1.76409
1.05848
0.352849
31.2065
30.2605
28.8618
27.4871
26.2587
25.1759
24.2078
23.323
22.4968
21.7105
20.951
20.2085
19.4762
18.7497
18.0265
17.3057
16.5872
15.8714
15.1587
14.4489
13.7417
13.0365
12.3324
11.6291
10.9259
10.2226
9.51903
8.81515
8.11094
7.40641
6.70162
5.99661
5.29142
4.5861
3.88069
3.1752
2.46965
1.76408
1.05847
0.352848
31.939
30.7799
29.1484
27.615
26.2981
25.1723
24.1868
23.2975
22.4728
21.6904
20.9353
20.197
19.468
18.7439
18.0223
17.3025
16.5846
15.8692
15.157
14.4478
13.7412
13.0364
12.3326
11.6294
10.9262
10.2229
9.51933
8.81539
8.11112
7.40655
6.70171
5.99667
5.29146
4.58613
3.8807
3.1752
2.46966
1.76407
1.05847
0.352849
32.7372
31.3707
29.5002
27.7931
26.3712
25.1889
24.1763
23.2765
22.4497
21.6696
20.9184
20.1842
19.4588
18.737
18.0168
17.2977
16.5802
15.8651
15.1536
14.4454
13.7397
13.0357
12.3325
11.6296
10.9266
10.2233
9.51973
8.81574
8.11141
7.40677
6.70188
5.99679
5.29155
4.58619
3.88074
3.17523
2.46967
1.76408
1.05847
0.352849
33.5006
31.9524
29.8625
27.9893
26.462
25.2196
24.1758
23.2618
22.4304
21.6508
20.9027
20.1723
19.4501
18.7303
18.011
17.2923
16.5748
15.8599
15.1491
14.4421
13.7377
13.0346
12.3322
11.6297
10.9269
10.2238
9.52018
8.81615
8.11176
7.40705
6.7021
5.99695
5.29167
4.58627
3.8808
3.17527
2.4697
1.7641
1.05848
0.352848
34.1655
32.4689
30.194
28.1765
26.5549
25.2564
24.182
23.253
22.4158
21.6356
20.8895
20.1623
19.4429
18.7244
18.0056
17.2869
16.5691
15.8541
15.1442
14.4386
13.7355
13.0336
12.3318
11.6298
10.9273
10.2243
9.52066
8.81658
8.11212
7.40734
6.70232
5.99712
5.29179
4.58636
3.88086
3.17531
2.46972
1.76411
1.05848
0.352847
34.6917
32.8831
30.4651
28.3339
26.6362
25.2915
24.1909
23.2485
22.4057
21.6242
20.8795
20.1547
19.4375
18.7196
18.001
17.2822
16.5642
15.8489
15.1398
14.4355
13.7336
13.0327
12.3316
11.63
10.9277
10.2247
9.52108
8.81697
8.11244
7.4076
6.70253
5.99728
5.2919
4.58644
3.88091
3.17535
2.46975
1.76413
1.05849
0.352845
35.0542
33.1709
30.6558
28.4466
26.696
25.3185
24.199
23.2467
22.3994
21.6168
20.8727
20.1495
19.4337
18.7163
17.9977
17.2788
16.5605
15.8451
15.1365
14.4332
13.7323
13.032
12.3314
11.6301
10.928
10.225
9.52141
8.81727
8.11269
7.4078
6.70268
5.9974
5.29199
4.5865
3.88096
3.17537
2.46976
1.76414
1.05849
0.352843
35.2387
33.3181
30.7541
28.5052
26.7275
25.3331
24.2038
23.2461
22.3964
21.6131
20.8694
20.1469
19.4317
18.7145
17.9959
17.277
16.5586
15.8431
15.1348
14.432
13.7316
13.0317
12.3314
11.6302
10.9281
10.2252
9.5216
8.81743
8.11283
7.40791
6.70277
5.99746
5.29204
4.58654
3.88098
3.17539
2.46978
1.76414
1.0585
0.352842
35.2387
33.3181
30.7541
28.5052
26.7275
25.3331
24.2038
23.2461
22.3964
21.6131
20.8694
20.1469
19.4317
18.7145
17.9959
17.277
16.5586
15.8431
15.1348
14.432
13.7316
13.0317
12.3314
11.6302
10.9281
10.2252
9.5216
8.81743
8.11283
7.40792
6.70277
5.99746
5.29204
4.58654
3.88098
3.17539
2.46978
1.76414
1.0585
0.352842
35.0542
33.171
30.6558
28.4466
26.696
25.3185
24.199
23.2467
22.3994
21.6167
20.8727
20.1495
19.4337
18.7163
17.9977
17.2788
16.5605
15.8451
15.1365
14.4332
13.7323
13.032
12.3314
11.6301
10.928
10.225
9.52142
8.81727
8.1127
7.40781
6.70269
5.9974
5.29199
4.5865
3.88096
3.17538
2.46977
1.76414
1.05849
0.352843
34.6917
32.8831
30.4651
28.3339
26.6362
25.2915
24.1909
23.2485
22.4056
21.6242
20.8794
20.1547
19.4375
18.7196
18.001
17.2822
16.5641
15.8489
15.1398
14.4355
13.7337
13.0327
12.3316
11.63
10.9277
10.2247
9.5211
8.81698
8.11245
7.40761
6.70253
5.99728
5.29191
4.58644
3.88092
3.17535
2.46975
1.76413
1.05849
0.352844
34.1655
32.4689
30.194
28.1765
26.5548
25.2564
24.1819
23.2529
22.4158
21.6355
20.8895
20.1622
19.4429
18.7243
18.0055
17.2868
16.5691
15.8541
15.1442
14.4386
13.7355
13.0336
12.3319
11.6299
10.9273
10.2243
9.52068
8.8166
8.11213
7.40735
6.70233
5.99713
5.2918
4.58636
3.88086
3.17531
2.46972
1.76411
1.05848
0.352846
33.5006
31.9524
29.8625
27.9892
26.462
25.2196
24.1757
23.2617
22.4304
21.6508
20.9026
20.1722
19.4501
18.7302
18.011
17.2922
16.5747
15.8599
15.1491
14.4421
13.7377
13.0347
12.3322
11.6297
10.927
10.2238
9.52021
8.81617
8.11177
7.40706
6.70211
5.99696
5.29167
4.58627
3.8808
3.17527
2.4697
1.7641
1.05848
0.352848
32.7372
31.3707
29.5001
27.793
26.3711
25.1889
24.1762
23.2764
22.4496
21.6695
20.9183
20.1842
19.4588
18.737
18.0168
17.2977
16.5801
15.8651
15.1536
14.4454
13.7397
13.0357
12.3325
11.6296
10.9266
10.2234
9.51975
8.81576
8.11143
7.40679
6.70189
5.9968
5.29156
4.58619
3.88074
3.17523
2.46967
1.76408
1.05847
0.352849
31.9389
30.7798
29.1483
27.6149
26.298
25.1723
24.1867
23.2975
22.4727
21.6904
20.9353
20.1969
19.468
18.7439
18.0223
17.3024
16.5845
15.8692
15.157
14.4478
13.7412
13.0364
12.3327
11.6294
10.9263
10.223
9.51936
8.81542
8.11114
7.40656
6.70173
5.99668
5.29147
4.58613
3.8807
3.17521
2.46966
1.76407
1.05847
0.352848
31.2063
30.2603
28.8617
27.4869
26.2586
25.1758
24.2077
23.323
22.4967
21.7105
20.9509
20.2084
19.4761
18.7496
18.0265
17.3057
16.5872
15.8714
15.1587
14.4489
13.7418
13.0365
12.3325
11.6291
10.9259
10.2226
9.51906
8.81517
8.11096
7.40643
6.70163
5.99661
5.29143
4.58611
3.88069
3.1752
2.46965
1.76407
1.05847
0.352848
30.6884
29.9219
28.7063
27.4415
26.2645
25.2002
24.235
23.3471
22.5159
21.725
20.9614
20.2157
19.481
18.7527
18.0283
17.3066
16.5875
15.8713
15.1582
14.4483
13.741
13.0358
12.3319
11.6286
10.9255
10.2223
9.51889
8.81508
8.11091
7.40641
6.70164
5.99663
5.29145
4.58613
3.88071
3.17522
2.46967
1.76409
1.05848
0.352848
30.5566
29.8933
28.7514
27.5041
26.3178
25.2374
24.258
23.3598
22.522
21.7273
20.9618
20.2152
19.4801
18.7515
18.0267
17.3045
16.5849
15.8684
15.1553
14.4456
13.7388
13.0341
12.3307
11.6279
10.9252
10.2222
9.51891
8.81518
8.11104
7.40655
6.70177
5.99675
5.29155
4.58621
3.88077
3.17526
2.46971
1.76412
1.0585
0.352856
29.1341
28.7799
28.0331
27.0926
26.1029
25.1361
24.218
23.3509
22.5278
21.7391
20.9753
20.2284
19.4917
18.7608
18.0332
17.3084
16.5865
15.8683
15.1543
14.4444
13.7378
13.0335
12.3304
11.6279
10.9254
10.2225
9.51922
8.81547
8.11129
7.40676
6.70193
5.99687
5.29163
4.58627
3.88081
3.17529
2.46973
1.76413
1.05851
0.352863
29.0958
28.7437
27.9763
27.0331
26.0535
25.1009
24.1955
23.3379
22.5211
21.736
20.9741
20.2279
19.4917
18.7614
18.0347
17.3108
16.5899
15.8723
15.1584
14.4481
13.7409
13.0358
12.332
11.6288
10.9258
10.2226
9.51916
8.81531
8.11109
7.40655
6.70174
5.9967
5.2915
4.58616
3.88073
3.17523
2.46968
1.76409
1.05848
0.352851
29.2429
28.8806
28.0529
27.0595
26.0513
25.0863
24.1779
23.3216
22.5076
21.7256
20.9664
20.2225
19.4881
18.7591
18.0335
17.3105
16.5902
15.8731
15.1596
14.4495
13.7423
13.037
12.333
11.6296
10.9263
10.223
9.51934
8.81538
8.1111
7.40652
6.70169
5.99665
5.29145
4.58612
3.88069
3.1752
2.46965
1.76407