# vtk DataFile Version 2.0
I need something to put here
ASCII

DATASET STRUCTURED_GRID
DIMENSIONS 41 21 21
POINTS 18081 float
0.000000 0.000000 0.000000
0.100000 0.000000 0.000000
0.200000 0.000000 0.000000
0.300000 0.000000 0.000000
0.400000 0.000000 0.000000
0.500000 0.000000 0.000000
0.600000 0.000000 0.000000
0.700000 0.000000 0.000000
0.800000 0.000000 0.000000
0.900000 0.000000 0.000000
1.000000 0.000000 0.000000
1.100000 0.000000 0.000000
1.200000 0.000000 0.000000
1.300000 0.000000 0.000000
1.400000 0.000000 0.000000
1.500000 0.000000 0.000000
1.600000 0.000000 0.000000
1.700000 0.000000 0.000000
1.800000 0.000000 0.000000
1.900000 0.000000 0.000000
2.000000 0.000000 0.000000
2.100000 0.000000 0.000000
2.200000 0.000000 0.000000
2.300000 0.000000 0.000000
2.400000 0.000000 0.000000
2.500000 0.000000 0.000000
2.600000 0.000000 0.000000
2.700000 0.000000 0.000000
2.800000 0.000000 0.000000
2.900000 0.000000 0.000000
3.000000 0.000000 0.000000
3.100000 0.000000 0.000000
3.200000 0.000000 0.000000
3.300000 0.000000 0.000000
3.400000 0.000000 0.000000
3.500000 0.000000 0.000000
3.600000 0.000000 0.000000
3.700000 0.000000 0.000000
3.800000 0.000000 0.000000
3.900000 0.000000 0.000000
4.000000 0.000000 0.000000
0.000000 0.100000 0.000000
0.100000 0.100000 0.000000
0.200000 0.100000 0.000000
0.300000 0.100000 0.000000
0.400000 0.100000 0.000000
0.500000 0.100000 0.000000
0.600000 0.100000 0.000000
0.700000 0.100000 0.000000
0.800000 0.100000 0.000000
0.900000 0.100000 0.000000
1.000000 0.100000 0.000000
1.100000 0.100000 0.000000
1.200000 0.100000 0.000000
1.300000 0.100000 0.000000
1.400000 0.100000 0.000000
1.500000 0.100000 0.000000
1.600000 0.100000 0.000000
1.700000 0.100000 0.000000
1.800000 0.100000 0.000000
1.900000 0.100000 0.000000
2.000000 0.100000 0.000000
2.100000 0.100000 0.000000
2.200000 0.100000 0.000000
2.300000 0.100000 0.000000
2.400000 0.100000 0.000000
2.500000 0.100000 0.000000
2.600000 0.100000 0.000000
2.700000 0.100000 0.000000
2.800000 0.100000 0.000000
2.900000 0.100000 0.000000
3.000000 0.100000 0.000000
3.100000 0.100000 0.000000
3.200000 0.100000 0.000000
3.300000 0.100000 0.000000
3.400000 0.100000 0.000000
3.500000 0.100000 0.000000
3.600000 0.100000 0.000000
3.700000 0.100000 0.000000
3.800000 0.100000 0.000000
3.900000 0.100000 0.000000
4.000000 0.100000 0.000000
0.000000 0.200000 0.000000
0.100000 0.200000 0.000000
0.200000 0.200000 0.000000
0.300000 0.200000 0.000000
0.400000 0.200000 0.000000
0.500000 0.200000 0.000000
0.600000 0.200000 0.000000
0.700000 0.200000 0.000000
0.800000 0.200000 0.000000
0.900000 0.200000 0.000000
1.000000 0.200000 0.000000
1.100000 0.200000 0.000000
1.200000 0.200000 0.000000
1.300000 0.200000 0.000000
1.400000 0.200000 0.000000
1.500000 0.200000 0.000000
1.600000 0.200000 0.000000
1.700000 0.200000 0.000000
1.800000 0.200000 0.000000
1.900000 0.200000 0.000000
2.000000 0.200000 0.000000
2.100000 0.200000 0.000000
2.200000 0.200000 0.000000
2.300000 0.200000 0.000000
2.400000 0.200000 0.000000
2.500000 0.200000 0.000000
2.600000 0.200000 0.000000
2.700000 0.200000 0.000000
2.800000 0.200000 0.000000
2.900000 0.200000 0.000000
3.000000 0.200000 0.000000
3.100000 0.200000 0.000000
3.200000 0.200000 0.000000
3.300000 0.200000 0.000000
3.400000 0.200000 0.000000
3.500000 0.200000 0.000000
3.600000 0.200000 0.000000
3.700000 0.200000 0.000000
3.800000 0.200000 0.000000
3.900000 0.200000 0.000000
4.000000 0.200000 0.000000
0.000000 0.300000 0.000000
0.100000 0.300000 0.000000
0.200000 0.300000 0.000000
0.300000 0.300000 0.000000
0.400000 0.300000 0.000000
0.500000 0.300000 0.000000
0.600000 0.300000 0.000000
0.700000 0.300000 0.000000
0.800000 0.300000 0.000000
0.900000 0.300000 0.000000
1.000000 0.300000 0.000000
1.100000 0.300000 0.000000
1.200000 0.300000 0.000000
1.300000 0.300000 0.000000
1.400000 0.300000 0.000000
1.500000 0.300000 0.000000
1.600000 0.300000 0.000000
1.700000 0.300000 0.000000
1.800000 0.300000 0.000000
1.900000 0.300000 0.000000
2.000000 0.300000 0.000000
2.100000 0.300000 0.000000
2.200000 0.300000 0.000000
2.300000 0.300000 0.000000
2.400000 0.300000 0.000000
2.500000 0.300000 0.000000
2.600000 0.300000 0.000000
2.700000 0.300000 0.000000
2.800000 0.300000 0.000000
2.900000 0.300000 0.000000
3.000000 0.300000 0.000000
3.100000 0.300000 0.000000
3.200000 0.300000 0.000000
3.300000 0.300000 0.000000
3.400000 0.300000 0.000000
3.500000 0.300000 0.000000
3.600000 0.300000 0.000000
3.700000 0.300000 0.000000
3.800000 0.300000 0.000000
3.900000 0.300000 0.000000
4.000000 0.300000 0.000000
0.000000 0.400000 0.000000
0.100000 0.400000 0.000000
0.200000 0.400000 0.000000
0.300000 0.400000 0.000000
0.400000 0.400000 0.000000
0.500000 0.400000 0.000000
0.600000 0.400000 0.000000
0.700000 0.400000 0.000000
0.800000 0.400000 0.000000
0.900000 0.400000 0.000000
1.000000 0.400000 0.000000
1.100000 0.400000 0.000000
1.200000 0.400000 0.000000
1.300000 0.400000 0.000000
1.400000 0.400000 0.000000
1.500000 0.400000 0.000000
1.600000 0.400000 0.000000
1.700000 0.400000 0.000000
1.800000 0.400000 0.000000
1.900000 0.400000 0.000000
2.000000 0.400000 0.000000
2.100000 0.400000 0.000000
2.200000 0.400000 0.000000
2.300000 0.400000 0.000000
2.400000 0.400000 0.000000
2.500000 0.400000 0.000000
2.600000 0.400000 0.000000
2.700000 0.400000 0.000000
2.800000 0.400000 0.000000
2.900000 0.400000 0.000000
3.000000 0.400000 0.000000
3.100000 0.400000 0.000000
3.200000 0.400000 0.000000
3.300000 0.400000 0.000000
3.400000 0.400000 0.000000
3.500000 0.400000 0.000000
3.600000 0.400000 0.000000
3.700000 0.400000 0.000000
3.800000 0.400000 0.000000
3.900000 0.400000 0.000000
4.000000 0.400000 0.000000
0.000000 0.500000 0.000000
0.100000 0.500000 0.000000
0.200000 0.500000 0.000000
0.300000 0.500000 0.000000
0.400000 0.500000 0.000000
0.500000 0.500000 0.000000
0.600000 0.500000 0.000000
0.700000 0.500000 0.000000
0.800000 0.500000 0.000000
0.900000 0.500000 0.000000
1.000000 0.500000 0.000000
1.100000 0.500000 0.000000
1.200000 0.500000 0.000000
1.300000 0.500000 0.000000
1.400000 0.500000 0.000000
1.500000 0.500000 0.000000
1.600000 0.500000 0.000000
1.700000 0.500000 0.000000
1.800000 0.500000 0.000000
1.900000 0.500000 0.000000
2.000000 0.500000 0.000000
2.100000 0.500000 0.000000
2.200000 0.500000 0.000000
2.300000 0.500000 0.000000
2.400000 0.500000 0.000000
2.500000 0.500000 0.000000
2.600000 0.500000 0.000000
2.700000 0.500000 0.000000
2.800000 0.500000 0.000000
2.900000 0.500000 0.000000
3.000000 0.500000 0.000000
3.100000 0.500000 0.000000
3.200000 0.500000 0.000000
3.300000 0.500000 0.000000
3.400000 0.500000 0.000000
3.500000 0.500000 0.000000
3.600000 0.500000 0.000000
3.700000 0.500000 0.000000
3.800000 0.500000 0.000000
3.900000 0.500000 0.000000
4.000000 0.500000 0.000000
0.000000 0.600000 0.000000
0.100000 0.600000 0.000000
0.200000 0.600000 0.000000
0.300000 0.600000 0.000000
0.400000 0.600000 0.000000
0.500000 0.600000 0.000000
0.600000 0.600000 0.000000
0.700000 0.600000 0.000000
0.800000 0.600000 0.000000
0.900000 0.600000 0.000000
1.000000 0.600000 0.000000
1.100000 0.600000 0.000000
1.200000 0.600000 0.000000
1.300000 0.600000 0.000000
1.400000 0.600000 0.000000
1.500000 0.600000 0.000000
1.600000 0.600000 0.000000
1.700000 0.600000 0.000000
1.800000 0.600000 0.000000
1.900000 0.600000 0.000000
2.000000 0.600000 0.000000
2.100000 0.600000 0.000000
2.200000 0.600000 0.000000
2.300000 0.600000 0.000000
2.400000 0.600000 0.000000
2.500000 0.600000 0.000000
2.600000 0.600000 0.000000
2.700000 0.600000 0.000000
2.800000 0.600000 0.000000
2.900000 0.600000 0.000000
3.000000 0.600000 0.000000
3.100000 0.600000 0.000000
3.200000 0.600000 0.000000
3.300000 0.600000 0.000000
3.400000 0.600000 0.000000
3.500000 0.600000 0.000000
3.600000 0.600000 0.000000
3.700000 0.600000 0.000000
3.800000 0.600000 0.000000
3.900000 0.600000 0.000000
4.000000 0.600000 0.000000
0.000000 0.700000 0.000000
0.100000 0.700000 0.000000
0.200000 0.700000 0.000000
0.300000 0.700000 0.000000
0.400000 0.700000 0.000000
0.500000 0.700000 0.000000
0.600000 0.700000 0.000000
0.700000 0.700000 0.000000
0.800000 0.700000 0.000000
0.900000 0.700000 0.000000
1.000000 0.700000 0.000000
1.100000 0.700000 0.000000
1.200000 0.700000 0.000000
1.300000 0.700000 0.000000
1.400000 0.700000 0.000000
1.500000 0.700000 0.000000
1.600000 0.700000 0.000000
1.700000 0.700000 0.000000
1.800000 0.700000 0.000000
1.900000 0.700000 0.000000
2.000000 0.700000 0.000000
2.100000 0.700000 0.000000
2.200000 0.700000 0.000000
2.300000 0.700000 0.000000
2.400000 0.700000 0.000000
2.500000 0.700000 0.000000
2.600000 0.700000 0.000000
2.700000 0.700000 0.000000
2.800000 0.700000 0.000000
2.900000 0.700000 0.000000
3.000000 0.700000 0.000000
3.100000 0.700000 0.000000
3.200000 0.700000 0.000000
3.300000 0.700000 0.000000
3.400000 0.700000 0.000000
3.500000 0.700000 0.000000
3.600000 0.700000 0.000000
3.700000 0.700000 0.000000
3.800000 0.700000 0.000000
3.900000 0.700000 0.000000
4.000000 0.700000 0.000000
0.000000 0.800000 0.000000
0.100000 0.800000 0.000000
0.200000 0.800000 0.000000
0.300000 0.800000 0.000000
0.400000 0.800000 0.000000
0.500000 0.800000 0.000000
0.600000 0.800000 0.000000
0.700000 0.800000 0.000000
0.800000 0.800000 0.000000
0.900000 0.800000 0.000000
1.000000 0.800000 0.000000
1.100000 0.800000 0.000000
1.200000 0.800000 0.000000
1.300000 0.800000 0.000000
1.400000 0.800000 0.000000
1.500000 0.800000 0.000000
1.600000 0.800000 0.000000
1.700000 0.800000 0.000000
1.800000 0.800000 0.000000
1.900000 0.800000 0.000000
2.000000 0.800000 0.000000
2.100000 0.800000 0.000000
2.200000 0.800000 0.000000
2.300000 0.800000 0.000000
2.400000 0.800000 0.000000
2.500000 0.800000 0.000000
2.600000 0.800000 0.000000
2.700000 0.800000 0.000000
2.800000 0.800000 0.000000
2.900000 0.800000 0.000000
3.000000 0.800000 0.000000
3.100000 0.800000 0.000000
3.200000 0.800000 0.000000
3.300000 0.800000 0.000000
3.400000 0.800000 0.000000
3.500000 0.800000 0.000000
3.600000 0.800000 0.000000
[...]
CELL_DATA 16000
SCALARS pressure float 1
LOOKUP_TABLE default
34.9782
31.8551
29.5174
27.773
26.4074
25.2776
24.2966
23.4112
22.5876
21.8038
21.045
20.3007
19.5643
18.8316
18.1005
17.3705
16.6422
15.9166
15.1945
14.4763
13.762
13.051
12.3425
11.6358
10.9303
10.2253
9.52061
8.81597
8.11126
7.40643
6.70146
5.99635
5.29113
4.58581
3.88041
3.17496
2.46946
1.76394
1.05838
0.352806
37.3292
32.2148
29.4005
27.5916
26.2575
25.1703
24.224
23.3634
22.5568
21.7844
21.0331
20.2938
19.5605
18.8297
18.0996
17.3702
16.6422
15.9167
15.1946
14.4765
13.7622
13.0512
12.3427
11.636
10.9304
10.2255
9.52073
8.81606
8.11133
7.40648
6.70149
5.99637
5.29114
4.58582
3.88042
3.17496
2.46946
1.76394
1.05838
0.352809
40.6877
33.1924
29.5589
27.5019
26.1164
25.0399
24.1194
23.2847
22.4999
21.7446
21.006
20.276
19.5492
18.8225
18.0948
17.3667
16.6392
15.914
15.1922
14.4745
13.7607
13.0502
12.3421
11.6357
10.9303
10.2255
9.52083
8.81619
8.11145
7.40659
6.70158
5.99645
5.2912
4.58586
3.88045
3.17498
2.46948
1.76395
1.05839
0.352814
44.1885
34.4375
29.9185
27.5324
26.038
24.9373
24.0236
23.2053
22.4382
21.6988
20.9735
20.2538
19.5344
18.8125
18.0876
17.3607
16.6337
15.9087
15.1873
14.4703
13.7574
13.0478
12.3406
11.6349
10.93
10.2254
9.52089
8.81632
8.11161
7.40674
6.70171
5.99655
5.29128
4.58592
3.8805
3.17502
2.4695
1.76396
1.0584
0.352821
47.4604
35.7213
30.3715
27.6453
26.0179
24.8719
23.9497
23.1378
22.3823
21.6556
20.942
20.2319
19.5195
18.8021
18.0794
17.3533
16.6263
15.9012
15.1802
14.4642
13.7526
13.0444
12.3384
11.6336
10.9293
10.2251
9.52089
8.81645
8.11179
7.40692
6.70188
5.99669
5.29139
4.58601
3.88056
3.17506
2.46954
1.76399
1.05842
0.352826
50.3253
36.9096
30.8356
27.7968
26.0364
24.8372
23.8979
23.0854
22.3366
21.619
20.9148
20.213
19.5067
18.7928
18.0716
17.3454
16.6178
15.8923
15.1717
14.4567
13.7468
13.0402
12.3357
11.632
10.9285
10.2248
9.52087
8.81657
8.11197
7.40711
6.70206
5.99684
5.29151
4.5861
3.88063
3.17512
2.46957
1.76401
1.05843
0.352832
52.6888
37.9237
31.2556
27.9524
26.0737
24.8232
23.8643
23.0475
22.3017
21.5905
20.8935
20.1983
19.4969
18.7855
18.0648
17.338
16.6093
15.883
15.1626
14.4489
13.7406
13.0359
12.3328
11.6303
10.9276
10.2245
9.52083
8.81669
8.11215
7.4073
6.70223
5.99699
5.29163
4.5862
3.8807
3.17517
2.46961
1.76403
1.05844
0.352836
54.4967
38.716
31.5958
28.0873
26.1142
24.8207
23.8439
23.0217
22.2769
21.5698
20.8782
20.1879
19.49
18.7802
18.0596
17.3318
16.6018
15.8747
15.1543
14.4417
13.735
13.0319
12.3303
11.6288
10.9269
10.2242
9.5208
8.81679
8.11231
7.40747
6.70239
5.99712
5.29174
4.58628
3.88076
3.17521
2.46964
1.76405
1.05846
0.352839
55.7169
39.2578
31.8334
28.1853
26.1469
24.8228
23.8326
23.0059
22.2612
21.5566
20.8683
20.1813
19.4858
18.7769
18.056
17.3273
16.5963
15.8684
15.1481
14.4362
13.7308
13.0289
12.3284
11.6277
10.9263
10.224
9.52078
8.81687
8.11243
7.4076
6.7025
5.99722
5.29182
4.58634
3.88081
3.17525
2.46966
1.76407
1.05846
0.352842
56.331
39.5324
31.9552
28.2366
26.1648
24.825
23.8277
22.9984
22.2536
21.5501
20.8635
20.1782
19.4837
18.7752
18.0542
17.325
16.5933
15.865
15.1447
14.4333
13.7285
13.0273
12.3273
11.6271
10.926
10.2239
9.52077
8.81692
8.11249
7.40767
6.70257
5.99728
5.29186
4.58637
3.88083
3.17526
2.46968
1.76408
1.05847
0.352843
56.331
39.5324
31.9552
28.2366
26.1648
24.825
23.8277
22.9984
22.2536
21.5501
20.8635
20.1782
19.4837
18.7752
18.0542
17.325
16.5934
15.865
15.1447
14.4333
13.7285
13.0273
12.3274
11.6271
10.926
10.2239
9.52078
8.81692
8.1125
7.40767
6.70257
5.99728
5.29187
4.58637
3.88083
3.17526
2.46968
1.76408
1.05847
0.352843
55.7169
39.2578
31.8334
28.1853
26.1469
24.8228
23.8326
23.0059
22.2612
21.5566
20.8683
20.1813
19.4858
18.7769
18.056
17.3274
16.5963
15.8684
15.1481
14.4363
13.7308
13.029
12.3284
11.6278
10.9264
10.224
9.5208
8.81689
8.11244
7.40761
6.70251
5.99723
5.29183
4.58634
3.88081
3.17525
2.46966
1.76407
1.05846
0.352842
54.4967
38.716
31.5957
28.0873
26.1142
24.8207
23.8439
23.0217
22.2769
21.5698
20.8782
20.1879
19.49
18.7803
18.0596
17.3318
16.6019
15.8747
15.1544
14.4417
13.7351
13.032
12.3304
11.6289
10.9269
10.2242
9.52084
8.81682
8.11233
7.40749
6.7024
5.99713
5.29175
4.58628
3.88077
3.17521
2.46964
1.76405
1.05846
0.352839
52.6888
37.9237
31.2556
27.9523
26.0737
24.8231
23.8643
23.0475
22.3016
21.5904
20.8935
20.1983
19.4969
18.7855
18.0648
17.3381
16.6094
15.8831
15.1627
14.4489
13.7407
13.036
12.3329
11.6304
10.9277
10.2246
9.52088
8.81673
8.11218
7.40733
6.70225
5.99701
5.29164
4.5862
3.8807
3.17517
2.46961
1.76403
1.05844
0.352835
50.3253
36.9096
30.8356
27.7968
26.0364
24.8371
23.8979
23.0854
22.3365
21.619
20.9148
20.213
19.5067
18.7928
18.0716
17.3455
16.6179
15.8924
15.1717
14.4568
13.7469
13.0403
12.3358
11.6321
10.9286
10.2249
9.52093
8.81662
8.11201
7.40714
6.70208
5.99686
5.29153
4.58611
3.88064
3.17512
2.46957
1.76401
1.05843
0.352831
47.4603
35.7213
30.3714
27.6452
26.0178
24.8718
23.9496
23.1377
22.3823
21.6556
20.9419
20.2319
19.5195
18.8021
18.0794
17.3533
16.6263
15.9013
15.1803
14.4643
13.7527
13.0445
12.3385
11.6337
10.9294
10.2252
9.52096
8.8165
8.11183
7.40695
6.7019
5.99671
5.29141
4.58602
3.88056
3.17507
2.46954
1.76399
1.05842
0.352825
44.1885
34.4375
29.9184
27.5323
26.0379
24.9373
24.0236
23.2052
22.4381
21.6987
20.9735
20.2538
19.5344
18.8125
18.0876
17.3607
16.6338
15.9088
15.1874
14.4704
13.7575
13.048
12.3407
11.635
10.93
10.2255
9.52095
8.81637
8.11165
7.40677
6.70174
5.99657
5.2913
4.58593
3.8805
3.17502
2.4695
1.76396
1.0584
0.352819
40.6876
33.1923
29.5588
27.5018
26.1163
25.0398
24.1194
23.2847
22.4999
21.7445
21.006
20.276
19.5492
18.8225
18.0949
17.3667
16.6393
15.9141
15.1923
14.4746
13.7608
13.0503
12.3422
11.6358
10.9304
10.2256
9.5209
8.81624
8.1115
7.40662
6.7016
5.99646
5.29121
4.58586
3.88045
3.17498
2.46948
1.76394
1.05839
0.352813
37.329
32.2146
29.4004
27.5915
26.2574
25.1702
24.2239
23.3633
22.5567
21.7844
21.0331
20.2938
19.5605
18.8297
18.0997
17.3703
16.6422
15.9167
15.1947
14.4766
13.7623
13.0513
12.3428
11.6361
10.9305
10.2255
9.52079
8.81611
8.11137
7.40651
6.70151
5.99639
5.29115
4.58582
3.88042
3.17496
2.46946
1.76393
1.05838
0.352808
34.9778
31.8548
29.5173
27.7729
26.4073
25.2775
24.2966
23.4111
22.5876
21.8038
21.0449
20.3007
19.5643
18.8316
18.1005
17.3705
16.6423
15.9166
15.1946
14.4764
13.7621
13.0511
12.3426
11.6359
10.9303
10.2254
9.52067
8.81602
8.1113
7.40646
6.70148
5.99636
5.29114
4.58581
3.88041
3.17496
2.46946
1.76393
1.05838
0.352805
32.6106
31.176
29.4358
27.8575
26.5138
25.3666
24.3625
23.4574
22.6191
21.8249
21.0588
20.3097
19.57
18.835
18.1024
17.3715
16.6425
15.9166
15.1943
14.4761
13.7618
13.0509
12.3424
11.6358
10.9303
10.2253
9.52063
8.81599
8.11128
7.40644
6.70147
5.99636
5.29113
4.58581
3.88041
3.17496
2.46946
1.76393
1.05838
0.352809
33.3118
31.3689
29.4115
27.7823
26.4453
25.3171
24.3303
23.4377
22.6076
21.8185
21.0554
20.308
19.5693
18.8351
18.1031
17.3727
16.6442
15.9185
15.1964
14.4781
13.7636
13.0524
12.3436
11.6367
10.9309
10.2257
9.5209
8.81615
8.11136
7.40648
6.70147
5.99635
5.29112
4.58579
3.8804
3.17494
2.46945
1.76392
1.05837
0.352806
34.7115
32.0431
29.643
27.8159
26.4073
25.262
24.2786
23.3956
22.5756
21.7951
21.039
20.2968
19.562
18.8303
18.1
17.3706
16.6428
15.9175
15.1957
14.4777
13.7635
13.0524
12.3438
11.6369
10.9311
10.226
9.52111
8.81632
8.1115
7.40658
6.70155
5.9964
5.29115
4.58581
3.88041
3.17495
2.46945
1.76393
1.05837
0.352808
36.3616
32.9517
30.04
27.9474
26.4191
25.2274
24.2314
23.3502
22.5373
21.7652
21.0168
20.2811
19.5511
18.8228
18.0945
17.3662
16.6389
15.9139
15.1925
14.4751
13.7615
13.0511
12.343
11.6366
10.931
10.226
9.52125
8.81648
8.11166
7.40672
6.70166
5.99649
5.29122
4.58587
3.88045
3.17498
2.46947
1.76394
1.05838
0.352811
38.0031
33.9203
30.5118
28.1405
26.4732
25.2185
24.1982
23.3114
22.5014
21.7355
20.994
20.2646
19.5395
18.8144
18.0878
17.3603
16.6332
15.9084
15.1874
14.4708
13.7582
13.0487
12.3415
11.6357
10.9307
10.2259
9.52132
8.81663
8.11183
7.40688
6.70181
5.99661
5.29131
4.58594
3.8805
3.17502
2.4695
1.76395
1.05839
0.352815
39.4926
34.8365
30.987
28.3567
26.552
25.2299
24.1796
23.2824
22.4717
21.7097
20.9737
20.2498
19.5289
18.8065
18.0811
17.3538
16.6265
15.9016
15.181
14.4652
13.7539
13.0457
12.3396
11.6346
10.9301
10.2258
9.52134
8.81676
8.112
7.40706
6.70196
5.99674
5.29142
4.58602
3.88056
3.17506
2.46953
1.76397
1.0584
0.352817
40.7482
35.6294
31.4147
28.5636
26.6375
25.2525
24.1722
23.2627
22.4493
21.6893
20.9574
20.2378
19.5204
18.7998
18.0751
17.3476
16.6198
15.8944
15.1741
14.4594
13.7493
13.0424
12.3375
11.6333
10.9295
10.2255
9.52133
8.81687
8.11216
7.40723
6.70212
5.99687
5.29152
4.5861
3.88062
3.1751
2.46956
1.76399
1.05841
0.35282
41.7217
36.2545
31.7606
28.7374
26.7144
25.2777
24.1715
23.2506
22.4338
21.6746
20.9455
20.229
19.5141
18.7948
18.0702
17.3423
16.6138
15.8879
15.1678
14.454
13.7451
13.0395
12.3355
11.6322
10.9289
10.2253
9.52132
8.81697
8.1123
7.40737
6.70225
5.99699
5.29162
4.58617
3.88068
3.17514
2.46959
1.76401
1.05842
0.352821
42.384
36.6843
32.0021
28.8616
26.7717
25.2984
24.1734
23.2439
22.4242
21.6652
20.9377
20.2234
19.5101
18.7914
18.0668
17.3385
16.6094
15.8831
15.1631
14.4499
13.7419
13.0372
12.3341
11.6313
10.9285
10.2251
9.52131
8.81704
8.1124
7.40748
6.70236
5.99708
5.29169
4.58623
3.88072
3.17517
2.46961
1.76402
1.05843
0.352822
42.7189
36.9028
32.1259
28.9262
26.802
25.31
24.1751
23.241
22.4196
21.6606
20.9339
20.2206
19.5081
18.7897
18.0651
17.3365
16.607
15.8805
15.1606
14.4477
13.7403
13.036
12.3333
11.6309
10.9282
10.225
9.5213
8.81708
8.11246
7.40754
6.70241
5.99712
5.29173
4.58626
3.88074
3.17519
2.46962
1.76403
1.05843
0.352823
42.7189
36.9028
32.126
28.9262
26.802
25.31
24.1751
23.241
22.4196
21.6606
20.9339
20.2206
19.5081
18.7897
18.0651
17.3365
16.607
15.8805
15.1606
14.4477
13.7403
13.036
12.3333
11.6309
10.9282
10.225
9.52131
8.81708
8.11246
7.40755
6.70241
5.99712
5.29173
4.58626
3.88074
3.17519
2.46962
1.76403
1.05843
0.352823
42.3841
36.6843
32.0021
28.8616
26.7716
25.2984
24.1734
23.2439
22.4242
21.6651
20.9377
20.2233
19.5101
18.7914
18.0668
17.3385
16.6094
15.8831
15.1631
14.4499
13.742
13.0373
12.3341
11.6314
10.9285
10.2252
9.52133
8.81706
8.11242
7.4075
6.70236
5.99708
5.29169
4.58623
3.88072
3.17517
2.46961
1.76402
1.05843
0.352822
41.7217
36.2545
31.7606
28.7374
26.7144
25.2777
24.1715
23.2506
22.4338
21.6746
20.9454
20.229
19.5141
18.7948
18.0703
17.3424
16.6138
15.888
15.1679
14.454
13.7452
13.0395
12.3356
11.6323
10.9289
10.2253
9.52135
8.817
8.11232
7.40739
6.70227
5.997
5.29163
4.58618
3.88068
3.17515
2.46959
1.76401
1.05842
0.352821
40.7482
35.6294
31.4147
28.5636
26.6375
25.2525
24.1722
23.2627
22.4493
21.6893
20.9574
20.2378
19.5204
18.7998
18.0751
17.3477
16.6198
15.8945
15.1742
14.4594
13.7494
13.0425
12.3375
11.6334
10.9295
10.2256
9.52138
8.81691
8.11219
7.40725
6.70214
5.99689
5.29153
4.58611
3.88063
3.17511
2.46956
1.76399
1.05841
0.352819
39.4926
34.8365
30.987
28.3566
26.552
25.2298
24.1796
23.2823
22.4717
21.7097
20.9737
20.2497
19.5289
18.8065
18.0811
17.3539
16.6266
15.9016
15.181
14.4653
13.754
13.0458
12.3397
11.6347
10.9302
10.2258
9.52139
8.81681
8.11203
7.40709
6.70199
5.99676
5.29143
4.58603
3.88057
3.17506
2.46953
1.76397
1.0584
0.352816
38.0031
33.9203
30.5118
28.1405
26.4731
25.2185
24.1981
23.3113
22.5013
21.7354
20.994
20.2646
19.5395
18.8144
18.0879
17.3603
16.6333
15.9085
15.1875
14.4709
13.7583
13.0488
12.3416
11.6358
10.9307
10.226
9.52138
8.81668
8.11187
7.40691
6.70183
5.99663
5.29132
4.58594
3.8805
3.17502
2.4695
1.76395
1.05839
0.352814
36.3615
32.9516
30.0399
27.9473
26.419
25.2273
24.2313
23.3501
22.5372
21.7651
21.0168
20.2811
19.5512
18.8228
18.0945
17.3662
16.6389
15.914
15.1926
14.4752
13.7616
13.0512
12.3431
11.6367
10.9311
10.2261
9.52131
8.81653
8.1117
7.40675
6.70169
5.99651
5.29123
4.58587
3.88045
3.17498
2.46947
1.76394
1.05838
0.35281
34.7113
32.043
29.6429
27.8158
26.4072
25.262
24.2785
23.3955
22.5755
21.7951
21.039
20.2968
19.562
18.8304
18.1
17.3707
16.6428
15.9176
15.1958
14.4778
13.7636
13.0525
12.3439
11.637
10.9312
10.2261
9.52117
8.81637
8.11154
7.40661
6.70157
5.99642
5.29116
4.58582
3.88041
3.17495
2.46945
1.76392
1.05837
0.352807
33.3115
31.3686
29.4113
27.7821
26.4452
25.3171
24.3302
23.4377
22.6076
21.8185
21.0554
20.308
19.5693
18.8351
18.1031
17.3727
16.6443
15.9186
15.1965
14.4782
13.7637
13.0525
12.3437
11.6368
10.931
10.2258
9.52096
8.8162
8.1114
7.40651
6.7015
5.99636
5.29113
4.5858
3.8804
3.17495
2.46945
1.76392
1.05837
0.352805
32.6102
31.1756
29.4356
27.8573
26.5137
25.3666
24.3625
23.4574
22.6191
21.8248
21.0588
20.3097
19.57
18.8351
18.1025
17.3715
16.6426
15.9166
15.1944
14.4762
13.7619
13.051
12.3425
11.6359
10.9303
10.2254
9.52068
8.81603
8.11131
7.40647
6.70148
5.99637
5.29114
4.58581
3.88041
3.17496
2.46946
1.76393
1.05838
0.352807
30.6874
30.0242
28.8823
27.6348
26.448
25.3669
24.3863
23.4863
22.6459
21.8473
21.0768
20.3238
19.5807
18.8428
18.1075
17.3743
16.6436
15.9163
15.1932
14.4748
13.7606
13.0499
12.3418
11.6354
10.93
10.2252
9.52063
8.81603
8.11134
7.4065
6.70152
5.9964
5.29117
4.58584
3.88043
3.17497
2.46947
1.76394
1.05839
0.352814
30.819
30.0525
28.8369
27.5719
26.3944
25.3292
24.3627
23.4728
22.6389
21.844
21.0753
20.3231
19.5806
18.8432
18.1087
17.3764
16.6465
15.9198
15.197
14.4785
13.7639
13.0526
12.3439
11.6369
10.9311
10.2259
9.52104
8.81626
8.11145
7.40654
6.70152
5.99638
5.29113
4.5858
3.8804
3.17495
2.46945
1.76392
1.05837
0.352808
31.3366
30.3908
28.9922
27.6172
26.3884
25.3047
24.3352
23.4484
22.6193
21.8292
21.0645
20.3155
19.5754
18.8399
18.1067
17.3754
16.6462
15.9201
15.1977
14.4794
13.7649
13.0536
12.3448
11.6377
10.9317
10.2264
9.52139
8.81651
8.11161
7.40665
6.70158
5.99641
5.29115
4.58581
3.8804
3.17494
2.46945
1.76392
1.05837
0.352808
32.0691
30.9102
29.2787
27.7451
26.4277
25.3011
24.3142
23.4231
22.5955
21.8094
21.0492
20.3044
19.5676
18.8344
18.1026
17.3721
16.6434
15.9176
15.1956
14.4779
13.764
13.0532
12.3447
11.6378
10.932
10.2267
9.52167
8.81675
8.11181
7.4068
6.7017
5.9965
5.29121
4.58585
3.88043
3.17496
2.46946
1.76392
1.05837
0.352809
32.8675
31.5012
29.6307
27.9234
26.501
25.318
24.3042
23.4025
22.5731
21.7893
21.0332
20.2926
19.5592
18.828
18.0974
17.3674
16.6387
15.9129
15.1914
14.4745
13.7616
13.0517
12.3439
11.6375
10.9319
10.2268
9.52187
8.81697
8.11202
7.40698
6.70184
5.99661
5.2913
4.58592
3.88048
3.17499
2.46948
1.76394
1.05838
0.35281
33.6312
32.0831
29.9933
28.1199
26.5923
25.3492
24.3043
23.3886
22.5549
21.7718
21.0188
20.282
19.5517
18.8221
18.092
17.3619
16.6328
15.9067
15.1857
14.4699
13.7583
13.0495
12.3426
11.6369
10.9317
10.2268
9.52203
8.81717
8.11223
7.40717
6.702
5.99674
5.2914
4.58599
3.88053
3.17503
2.4695
1.76395
1.05839
0.352811
34.2964
32.6
30.325
28.3075
26.6855
25.3866
24.3112
23.3808
22.5414
21.758
21.0073
20.2736
19.5458
18.817
18.0869
17.3564
16.6266
15.8999
15.1794
14.4649
13.7546
13.0471
12.3412
11.6361
10.9314
10.2268
9.52215
8.81736
8.11242
7.40735
6.70216
5.99687
5.2915
4.58607
3.88059
3.17507
2.46953
1.76397
1.05839
0.352812
34.8229
33.0145
30.5964
28.4652
26.7673
25.4222
24.3208
23.3772
22.5324
21.748
20.9988
20.2676
19.5418
18.8132
18.0827
17.3517
16.6211
15.8936
15.1736
14.4603
13.7513
13.045
12.3399
11.6354
10.9311
10.2268
9.52224
8.81751
8.11259
7.40751
6.7023
5.99698
5.29159
4.58614
3.88064
3.17511
2.46955
1.76398
1.0584
0.352812
35.1858
33.3026
30.7875
28.5782
26.8274
25.4496
24.3295
23.3761
22.5271
21.7416
20.9933
20.2637
19.539
18.8104
18.0797
17.3482
16.617
15.8889
15.1692
14.4568
13.7488
13.0433
12.3389
11.6349
10.9309
10.2267
9.52231
8.81762
8.11271
7.40763
6.7024
5.99707
5.29166
4.58619
3.88068
3.17514
2.46957
1.764
1.05841
0.352812
35.3704
33.4499
30.8858
28.637
26.8591
25.4644
24.3346
23.376
22.5246
21.7386
20.9906
20.2617
19.5376
18.809
18.0781
17.3463
16.6148
15.8865
15.1669
14.4549
13.7475
13.0424
12.3384
11.6347
10.9308
10.2267
9.52235
8.81768
8.11278
7.40769
6.70246
5.99712
5.29169
4.58622
3.8807
3.17515
2.46958
1.764
1.05841
0.352812
35.3704
33.4499
30.8858
28.637
26.8591
25.4644
24.3346
23.376
22.5246
21.7386
20.9906
20.2617
19.5376
18.809
18.0781
17.3463
16.6148
15.8865
15.1669
14.4549
13.7475
13.0425
12.3384
11.6347
10.9308
10.2267
9.52235
8.81769
8.11279
7.4077
6.70246
5.99712
5.2917
4.58622
3.8807
3.17515
2.46958
1.764
1.05841
0.352812
35.1858
33.3026
30.7875
28.5782
26.8274
25.4496
24.3295
23.3761
22.5271
21.7416
20.9933
20.2637
19.539
18.8104
18.0797
17.3482
16.617
15.889
15.1693
14.4568
13.7489
13.0434
12.339
11.635
10.931
10.2268
9.52233
8.81764
8.11273
7.40764
6.70241
5.99708
5.29166
4.58619
3.88068
3.17514
2.46957
1.764
1.05841
0.352811
34.823
33.0145
30.5965
28.4652
26.7673
25.4222
24.3208
23.3772
22.5324
21.748
20.9988
20.2676
19.5418
18.8132
18.0827
17.3517
16.6211
15.8936
15.1736
14.4603
13.7514
13.045
12.34
11.6355
10.9312
10.2268
9.52227
8.81754
8.11261
7.40753
6.70231
5.99699
5.2916
4.58614
3.88064
3.17511
2.46956
1.76398
1.0584
0.352811
34.2964
32.6
30.3251
28.3075
26.6855
25.3865
24.3111
23.3807
22.5414
21.7579
21.0072
20.2736
19.5458
18.8171
18.087
17.3564
16.6267
15.9
15.1795
14.465
13.7547
13.0472
12.3413
11.6362
10.9315
10.2269
9.52219
8.81739
8.11245
7.40737
6.70218
5.99688
5.29151
4.58607
3.88059
3.17507
2.46953
1.76397
1.05839
0.352811
33.6312
32.0831
29.9933
28.1199
26.5922
25.3492
24.3042
23.3886
22.5548
21.7718
21.0188
20.282
19.5517
18.8221
18.092
17.3619
16.6329
15.9068
15.1858
14.47
13.7584
13.0496
12.3427
11.637
10.9318
10.2269
9.52208
8.81722
8.11226
7.4072
6.70202
5.99676
5.29141
4.586
3.88053
3.17503
2.4695
1.76395
1.05839
0.35281
32.8675
31.5012
29.6306
27.9233
26.501
25.318
24.3041
23.4025
22.5731
21.7893
21.0332
20.2926
19.5592
18.8281
18.0975
17.3674
16.6388
15.913
15.1915
14.4746
13.7617
13.0518
12.344
11.6376
10.932
10.2269
9.52193
8.81702
8.11206
7.40701
6.70187
5.99663
5.29131
4.58592
3.88048
3.17499
2.46948
1.76394
1.05838
0.352809
32.0691
30.9101
29.2786
27.745
26.4277
25.3011
24.3142
23.423
22.5955
21.8093
21.0492
20.3044
19.5676
18.8344
18.1027
17.3722
16.6435
15.9177
15.1957
14.478
13.7641
13.0533
12.3448
11.6379
10.9321
10.2267
9.52173
8.8168
8.11185
7.40683
6.70172
5.99651
5.29122
4.58586
3.88043
3.17496
2.46946
1.76392
1.05837
0.352808
31.3364
30.3907
28.992
27.617
26.3882
25.3046
24.3351
23.4484
22.6192
21.8291
21.0645
20.3155
19.5754
18.8399
18.1068
17.3754
16.6463
15.9201
15.1978
14.4795
13.765
13.0537
12.3449
11.6378
10.9318
10.2265
9.52145
8.81656
8.11165
7.40668
6.7016
5.99643
5.29116
4.58582
3.88041
3.17495
2.46945
1.76392
1.05837
0.352806
30.8187
30.0523
28.8367
27.5717
26.3943
25.3291
24.3627
23.4728
22.6388
21.844
21.0753
20.3231
19.5806
18.8432
18.1087
17.3764
16.6465
15.9199
15.1971
14.4786
13.764
13.0527
12.3439
11.637
10.9312
10.226
9.5211
8.81631
8.11148
7.40657
6.70154
5.99639
5.29114
4.58581
3.8804
3.17495
2.46945
1.76392
1.05837
0.352806
30.687
30.0238
28.882
27.6346
26.4479
25.3669
24.3863
23.4862
22.6458
21.8473
21.0768
20.3238
19.5807
18.8428
18.1075
17.3743
16.6436
15.9163
15.1933
14.4749
13.7607
13.05
12.3419
11.6355
10.9301
10.2253
9.52068
8.81607
8.11137
7.40652
6.70153
5.99641
5.29117
4.58584
3.88043
3.17497
2.46947
1.76394
1.05838
0.352811
29.2646
28.9106
28.1639
27.2233
26.2333
25.266
24.3468
23.4781
22.6525
21.8602
21.0915
20.3381
19.5933
18.8528
18.1145
17.3782
16.6448
15.9155
15.1913
14.4725
13.7584
13.0482
12.3406
11.6347
10.9297
10.2251
9.52065
8.81612
8.11145
7.40661
6.70162
5.99648
5.29123
4.58589
3.88047
3.175
2.46949
1.76395
1.0584
0.352818
29.2261
28.8742
28.1068
27.1634
26.1835
25.2301
24.3234
23.464
22.6445
21.8556
21.0887
20.336
19.5919
18.8523
18.1153
17.3806
16.6486
15.9204
15.1966
14.4777
13.763
13.052
12.3435
11.6368
10.9311
10.226
9.52118
8.81641
8.11158
7.40665
6.70161
5.99645
5.29119
4.58584
3.88043
3.17496
2.46946
1.76393
1.05838
0.35281
29.3731
29.011
28.1833
27.1897
26.181
25.2152
24.3054
23.4472
22.6304
21.8446
21.0803
20.33
19.5877
18.8496
18.1139
17.3802
16.6491
15.9215
15.1983
14.4796
13.7651
13.0539
12.3451
11.6381
10.9321
10.2267
9.52168
8.81674
8.11179
7.40678
6.70168
5.99648
5.2912
4.58584
3.88042
3.17495
2.46945
1.76392
1.05837
0.352808
29.6715