# vtk DataFile Version 2.0
I need something to put here
ASCII

DATASET STRUCTURED_GRID
DIMENSIONS 41 21 21
POINTS 18081 float
0.000000 0.000000 0.000000
0.100000 0.000000 0.000000
0.200000 0.000000 0.000000
0.300000 0.000000 0.000000
0.400000 0.000000 0.000000
0.500000 0.000000 0.000000
0.600000 0.000000 0.000000
0.700000 0.000000 0.000000
0.800000 0.000000 0.000000
0.900000 0.000000 0.000000
1.000000 0.000000 0.000000
1.100000 0.000000 0.000000
1.200000 0.000000 0.000000
1.300000 0.000000 0.000000
1.400000 0.000000 0.000000
1.500000 0.000000 0.000000
1.600000 0.000000 0.000000
1.700000 0.000000 0.000000
1.800000 0.000000 0.000000
1.900000 0.000000 0.000000
2.000000 0.000000 0.000000
2.100000 0.000000 0.000000
2.200000 0.000000 0.000000
2.300000 0.000000 0.000000
2.400000 0.000000 0.000000
2.500000 0.000000 0.000000
2.600000 0.000000 0.000000
2.700000 0.000000 0.000000
2.800000 0.000000 0.000000
2.900000 0.000000 0.000000
3.000000 0.000000 0.000000
3.100000 0.000000 0.000000
3.200000 0.000000 0.000000
3.300000 0.000000 0.000000
3.400000 0.000000 0.000000
3.500000 0.000000 0.000000
3.600000 0.000000 0.000000
3.700000 0.000000 0.000000
3.800000 0.000000 0.000000
3.900000 0.000000 0.000000
4.000000 0.000000 0.000000
0.000000 0.100000 0.000000
0.100000 0.100000 0.000000
0.200000 0.100000 0.000000
0.300000 0.100000 0.000000
0.400000 0.100000 0.000000
0.500000 0.100000 0.000000
0.600000 0.100000 0.000000
0.700000 0.100000 0.000000
0.800000 0.100000 0.000000
0.900000 0.100000 0.000000
1.000000 0.100000 0.000000
1.100000 0.100000 0.000000
1.200000 0.100000 0.000000
1.300000 0.100000 0.000000
1.400000 0.100000 0.000000
1.500000 0.100000 0.000000
1.600000 0.100000 0.000000
1.700000 0.100000 0.000000
1.800000 0.100000 0.000000
1.900000 0.100000 0.000000
2.000000 0.100000 0.000000
2.100000 0.100000 0.000000
2.200000 0.100000 0.000000
2.300000 0.100000 0.000000
2.400000 0.100000 0.000000
2.500000 0.100000 0.000000
2.600000 0.100000 0.000000
2.700000 0.100000 0.000000
2.800000 0.100000 0.000000
2.900000 0.100000 0.000000
3.000000 0.100000 0.000000
3.100000 0.100000 0.000000
3.200000 0.100000 0.000000
3.300000 0.100000 0.000000
3.400000 0.100000 0.000000
3.500000 0.100000 0.000000
3.600000 0.100000 0.000000
3.700000 0.100000 0.000000
3.800000 0.100000 0.000000
3.900000 0.100000 0.000000
4.000000 0.100000 0.000000
0.000000 0.200000 0.000000
0.100000 0.200000 0.000000
0.200000 0.200000 0.000000
0.300000 0.200000 0.000000
0.400000 0.200000 0.000000
0.500000 0.200000 0.000000
0.600000 0.200000 0.000000
0.700000 0.200000 0.000000
0.800000 0.200000 0.000000
0.900000 0.200000 0.000000
1.000000 0.200000 0.000000
1.100000 0.200000 0.000000
1.200000 0.200000 0.000000
1.300000 0.200000 0.000000
1.400000 0.200000 0.000000
1.500000 0.200000 0.000000
1.600000 0.200000 0.000000
1.700000 0.200000 0.000000
1.800000 0.200000 0.000000
1.900000 0.200000 0.000000
2.000000 0.200000 0.000000
2.100000 0.200000 0.000000
2.200000 0.200000 0.000000
2.300000 0.200000 0.000000
2.400000 0.200000 0.000000
2.500000 0.200000 0.000000
2.600000 0.200000 0.000000
2.700000 0.200000 0.000000
2.800000 0.200000 0.000000
2.900000 0.200000 0.000000
3.000000 0.200000 0.000000
3.100000 0.200000 0.000000
3.200000 0.200000 0.000000
3.300000 0.200000 0.000000
3.400000 0.200000 0.000000
3.500000 0.200000 0.000000
3.600000 0.200000 0.000000
3.700000 0.200000 0.000000
3.800000 0.200000 0.000000
3.900000 0.200000 0.000000
4.000000 0.200000 0.000000
0.000000 0.300000 0.000000
0.100000 0.300000 0.000000
0.200000 0.300000 0.000000
0.300000 0.300000 0.000000
0.400000 0.300000 0.000000
0.500000 0.300000 0.000000
0.600000 0.300000 0.000000
0.700000 0.300000 0.000000
0.800000 0.300000 0.000000
0.900000 0.300000 0.000000
1.000000 0.300000 0.000000
1.100000 0.300000 0.000000
1.200000 0.300000 0.000000
1.300000 0.300000 0.000000
1.400000 0.300000 0.000000
1.500000 0.300000 0.000000
1.600000 0.300000 0.000000
1.700000 0.300000 0.000000
1.800000 0.300000 0.000000
1.900000 0.300000 0.000000
2.000000 0.300000 0.000000
2.100000 0.300000 0.000000
2.200000 0.300000 0.000000
2.300000 0.300000 0.000000
2.400000 0.300000 0.000000
2.500000 0.300000 0.000000
2.600000 0.300000 0.000000
2.700000 0.300000 0.000000
2.800000 0.300000 0.000000
2.900000 0.300000 0.000000
3.000000 0.300000 0.000000
3.100000 0.300000 0.000000
3.200000 0.300000 0.000000
3.300000 0.300000 0.000000
3.400000 0.300000 0.000000
3.500000 0.300000 0.000000
3.600000 0.300000 0.000000
3.700000 0.300000 0.000000
3.800000 0.300000 0.000000
3.900000 0.300000 0.000000
4.000000 0.300000 0.000000
0.000000 0.400000 0.000000
0.100000 0.400000 0.000000
0.200000 0.400000 0.000000
0.300000 0.400000 0.000000
0.400000 0.400000 0.000000
0.500000 0.400000 0.000000
0.600000 0.400000 0.000000
0.700000 0.400000 0.000000
0.800000 0.400000 0.000000
0.900000 0.400000 0.000000
1.000000 0.400000 0.000000
1.100000 0.400000 0.000000
1.200000 0.400000 0.000000
1.300000 0.400000 0.000000
1.400000 0.400000 0.000000
1.500000 0.400000 0.000000
1.600000 0.400000 0.000000
1.700000 0.400000 0.000000
1.800000 0.400000 0.000000
1.900000 0.400000 0.000000
2.000000 0.400000 0.000000
2.100000 0.400000 0.000000
2.200000 0.400000 0.000000
2.300000 0.400000 0.000000
2.400000 0.400000 0.000000
2.500000 0.400000 0.000000
2.600000 0.400000 0.000000
2.700000 0.400000 0.000000
2.800000 0.400000 0.000000
2.900000 0.400000 0.000000
3.000000 0.400000 0.000000
3.100000 0.400000 0.000000
3.200000 0.400000 0.000000
3.300000 0.400000 0.000000
3.400000 0.400000 0.000000
3.500000 0.400000 0.000000
3.600000 0.400000 0.000000
3.700000 0.400000 0.000000
3.800000 0.400000 0.000000
3.900000 0.400000 0.000000
4.000000 0.400000 0.000000
0.000000 0.500000 0.000000
0.100000 0.500000 0.000000
0.200000 0.500000 0.000000
0.300000 0.500000 0.000000
0.400000 0.500000 0.000000
0.500000 0.500000 0.000000
0.600000 0.500000 0.000000
0.700000 0.500000 0.000000
0.800000 0.500000 0.000000
0.900000 0.500000 0.000000
1.000000 0.500000 0.000000
1.100000 0.500000 0.000000
1.200000 0.500000 0.000000
1.300000 0.500000 0.000000
1.400000 0.500000 0.000000
1.500000 0.500000 0.000000
1.600000 0.500000 0.000000
1.700000 0.500000 0.000000
1.800000 0.500000 0.000000
1.900000 0.500000 0.000000
2.000000 0.500000 0.000000
2.100000 0.500000 0.000000
2.200000 0.500000 0.000000
2.300000 0.500000 0.000000
2.400000 0.500000 0.000000
2.500000 0.500000 0.000000
2.600000 0.500000 0.000000
2.700000 0.500000 0.000000
2.800000 0.500000 0.000000
2.900000 0.500000 0.000000
3.000000 0.500000 0.000000
3.100000 0.500000 0.000000
3.200000 0.500000 0.000000
3.300000 0.500000 0.000000
3.400000 0.500000 0.000000
3.500000 0.500000 0.000000
3.600000 0.500000 0.000000
3.700000 0.500000 0.000000
3.800000 0.500000 0.000000
3.900000 0.500000 0.000000
4.000000 0.500000 0.000000
0.000000 0.600000 0.000000
0.100000 0.600000 0.000000
0.200000 0.600000 0.000000
0.300000 0.600000 0.000000
0.400000 0.600000 0.000000
0.500000 0.600000 0.000000
0.600000 0.600000 0.000000
0.700000 0.600000 0.000000
0.800000 0.600000 0.000000
0.900000 0.600000 0.000000
1.000000 0.600000 0.000000
1.100000 0.600000 0.000000
1.200000 0.600000 0.000000
1.300000 0.600000 0.000000
1.400000 0.600000 0.000000
1.500000 0.600000 0.000000
1.600000 0.600000 0.000000
1.700000 0.600000 0.000000
1.800000 0.600000 0.000000
1.900000 0.600000 0.000000
2.000000 0.600000 0.000000
2.100000 0.600000 0.000000
2.200000 0.600000 0.000000
2.300000 0.600000 0.000000
2.400000 0.600000 0.000000
2.500000 0.600000 0.000000
2.600000 0.600000 0.000000
2.700000 0.600000 0.000000
2.800000 0.600000 0.000000
2.900000 0.600000 0.000000
3.000000 0.600000 0.000000
3.100000 0.600000 0.000000
3.200000 0.600000 0.000000
3.300000 0.600000 0.000000
3.400000 0.600000 0.000000
3.500000 0.600000 0.000000
3.600000 0.600000 0.000000
3.700000 0.600000 0.000000
3.800000 0.600000 0.000000
3.900000 0.600000 0.000000
4.000000 0.600000 0.000000
0.000000 0.700000 0.000000
0.100000 0.700000 0.000000
0.200000 0.700000 0.000000
0.300000 0.700000 0.000000
0.400000 0.700000 0.000000
0.500000 0.700000 0.000000
0.600000 0.700000 0.000000
0.700000 0.700000 0.000000
0.800000 0.700000 0.000000
0.900000 0.700000 0.000000
1.000000 0.700000 0.000000
1.100000 0.700000 0.000000
1.200000 0.700000 0.000000
1.300000 0.700000 0.000000
1.400000 0.700000 0.000000
1.500000 0.700000 0.000000
1.600000 0.700000 0.000000
1.700000 0.700000 0.000000
1.800000 0.700000 0.000000
1.900000 0.700000 0.000000
2.000000 0.700000 0.000000
2.100000 0.700000 0.000000
2.200000 0.700000 0.000000
2.300000 0.700000 0.000000
2.400000 0.700000 0.000000
2.500000 0.700000 0.000000
2.600000 0.700000 0.000000
2.700000 0.700000 0.000000
2.800000 0.700000 0.000000
2.900000 0.700000 0.000000
3.000000 0.700000 0.000000
3.100000 0.700000 0.000000
3.200000 0.700000 0.000000
3.300000 0.700000 0.000000
3.400000 0.700000 0.000000
3.500000 0.700000 0.000000
3.600000 0.700000 0.000000
3.700000 0.700000 0.000000
3.800000 0.700000 0.000000
3.900000 0.700000 0.000000
4.000000 0.700000 0.000000
0.000000 0.800000 0.000000
0.100000 0.800000 0.000000
0.200000 0.800000 0.000000
0.300000 0.800000 0.000000
0.400000 0.800000 0.000000
0.500000 0.800000 0.000000
0.600000 0.800000 0.000000
0.700000 0.800000 0.000000
0.800000 0.800000 0.000000
0.900000 0.800000 0.000000
1.000000 0.800000 0.000000
1.100000 0.800000 0.000000
1.200000 0.800000 0.000000
1.300000 0.800000 0.000000
1.400000 0.800000 0.000000
1.500000 0.800000 0.000000
1.600000 0.800000 0.000000
1.700000 0.800000 0.000000
1.800000 0.800000 0.000000
1.900000 0.800000 0.000000
2.000000 0.800000 0.000000
2.100000 0.800000 0.000000
2.200000 0.800000 0.000000
2.300000 0.800000 0.000000
2.400000 0.800000 0.000000
2.500000 0.800000 0.000000
2.600000 0.800000 0.000000
2.700000 0.800000 0.000000
2.800000 0.800000 0.000000
2.900000 0.800000 0.000000
3.000000 0.800000 0.000000
3.100000 0.800000 0.000000
3.200000 0.800000 0.000000
3.300000 0.800000 0.000000
3.400000 0.800000 0.000000
3.500000 0.800000 0.000000
3.600000 0.800000 0.000000
[...]
CELL_DATA 16000
SCALARS pressure float 1
LOOKUP_TABLE default
34.9008
31.7776
29.44
27.6957
26.3303
25.2009
24.2207
23.3364
22.5144
21.733
20.9771
20.2368
19.5051
18.7778
18.0527
17.3291
16.6073
15.8879
15.1716
14.4586
13.7487
13.0413
12.3356
11.6311
10.9271
10.2233
9.51946
8.81537
8.11102
7.40641
6.70157
5.99653
5.29133
4.58601
3.8806
3.17512
2.4696
1.76403
1.05845
0.35283
37.2518
32.1374
29.3231
27.5143
26.1804
25.0937
24.148
23.2886
22.4836
21.7136
20.9653
20.2298
19.5013
18.7759
18.0519
17.3288
16.6073
15.888
15.1718
14.4588
13.7489
13.0415
12.3359
11.6313
10.9273
10.2235
9.51957
8.81545
8.11108
7.40645
6.7016
5.99655
5.29134
4.58602
3.88061
3.17512
2.4696
1.76403
1.05845
0.352833
40.6104
33.115
29.4815
27.4245
26.0392
24.9631
24.0434
23.2097
22.4265
21.6734
20.9378
20.2117
19.4896
18.7684
18.0469
17.3253
16.6045
15.8856
15.1697
14.4572
13.7477
13.0408
12.3355
11.6312
10.9274
10.2237
9.51977
8.81564
8.11125
7.40659
6.70171
5.99663
5.2914
4.58606
3.88064
3.17515
2.46961
1.76404
1.05845
0.352839
44.1111
34.36
29.8409
27.4549
25.9606
24.8603
23.9472
23.1299
22.3642
21.627
20.9046
20.1888
19.4741
18.7579
18.0394
17.3193
16.5991
15.8807
15.1654
14.4536
13.7451
13.0391
12.3346
11.6308
10.9274
10.2238
9.52001
8.81591
8.1115
7.4068
6.70188
5.99676
5.29151
4.58614
3.88069
3.17518
2.46964
1.76406
1.05847
0.352846
47.3828
35.6437
30.2938
27.5676
25.9403
24.7945
23.8728
23.0618
22.3076
21.5829
20.872
20.1658
19.4584
18.7469
18.0309
17.3118
16.592
15.8739
15.1592
14.4485
13.7413
13.0365
12.3331
11.6301
10.9272
10.2239
9.52028
8.81622
8.1118
7.40707
6.7021
5.99694
5.29164
4.58624
3.88076
3.17523
2.46967
1.76409
1.05848
0.352852
50.2476
36.8318
30.7577
27.7189
25.9585
24.7594
23.8205
23.0087
22.2609
21.5452
20.8437
20.1457
19.4445
18.7368
18.0226
17.304
16.584
15.8658
15.1517
14.4423
13.7367
13.0335
12.3313
11.6293
10.927
10.2241
9.52058
8.81657
8.11214
7.40737
6.70234
5.99713
5.29179
4.58634
3.88084
3.17529
2.46971
1.76411
1.05849
0.352858
52.611
37.8457
31.1776
27.8742
25.9955
24.745
23.7863
22.9699
22.225
21.5154
20.821
20.1296
19.4334
18.7285
18.0154
17.2966
16.576
15.8575
15.1438
14.4357
13.7318
13.0303
12.3295
11.6284
10.9267
10.2242
9.52087
8.81692
8.11248
7.40767
6.70259
5.99733
5.29193
4.58645
3.88092
3.17534
2.46975
1.76413
1.05851
0.352862
54.4187
38.6378
31.5175
28.0088
26.0356
24.7421
23.7653
22.9434
22.1993
21.4936
20.8044
20.1179
19.4254
18.7225
18.0097
17.2905
16.569
15.85
15.1367
14.4298
13.7275
13.0274
12.3278
11.6277
10.9265
10.2243
9.52114
8.81724
8.11279
7.40793
6.70281
5.9975
5.29207
4.58655
3.88099
3.17539
2.46978
1.76416
1.05852
0.352865
55.6387
39.1795
31.7549
28.1067
26.068
24.7439
23.7536
22.927
22.1828
21.4794
20.7935
20.1103
19.4202
18.7185
18.0058
17.286
16.5639
15.8444
15.1314
14.4254
13.7242
13.0253
12.3266
11.6271
10.9264
10.2244
9.52135
8.81748
8.11302
7.40814
6.70297
5.99763
5.29216
4.58662
3.88104
3.17543
2.46981
1.76417
1.05853
0.352867
56.2527
39.454
31.8767
28.1579
26.0859
24.7458
23.7484
22.9192
22.1748
21.4725
20.7881
20.1066
19.4177
18.7165
18.0038
17.2837
16.5611
15.8414
15.1286
14.423
13.7224
13.0241
12.326
11.6269
10.9263
10.2245
9.52147
8.81761
8.11314
7.40825
6.70306
5.9977
5.29222
4.58666
3.88107
3.17545
2.46982
1.76418
1.05853
0.352868
56.2527
39.454
31.8767
28.1579
26.0859
24.7458
23.7484
22.9192
22.1748
21.4725
20.7881
20.1065
19.4177
18.7165
18.0038
17.2837
16.5612
15.8414
15.1286
14.423
13.7224
13.0242
12.326
11.6269
10.9263
10.2245
9.52147
8.81762
8.11315
7.40825
6.70307
5.9977
5.29222
4.58667
3.88107
3.17545
2.46982
1.76418
1.05853
0.352868
55.6387
39.1794
31.7549
28.1067
26.068
24.7438
23.7536
22.927
22.1828
21.4794
20.7935
20.1103
19.4202
18.7184
18.0058
17.286
16.5639
15.8444
15.1314
14.4254
13.7242
13.0253
12.3267
11.6272
10.9264
10.2244
9.52137
8.81749
8.11303
7.40814
6.70298
5.99763
5.29217
4.58663
3.88104
3.17543
2.46981
1.76417
1.05853
0.352867
54.4187
38.6378
31.5175
28.0088
26.0356
24.742
23.7653
22.9434
22.1993
21.4936
20.8043
20.1179
19.4254
18.7224
18.0097
17.2905
16.569
15.85
15.1368
14.4298
13.7275
13.0275
12.3279
11.6277
10.9266
10.2243
9.52117
8.81726
8.1128
7.40795
6.70282
5.99751
5.29207
4.58656
3.88099
3.1754
2.46978
1.76416
1.05852
0.352865
52.611
37.8457
31.1775
27.8741
25.9955
24.7449
23.7862
22.9699
22.225
21.5154
20.821
20.1296
19.4334
18.7285
18.0154
17.2966
16.576
15.8575
15.1439
14.4358
13.7319
13.0303
12.3295
11.6285
10.9268
10.2242
9.52091
8.81695
8.1125
7.40769
6.7026
5.99734
5.29194
4.58646
3.88092
3.17535
2.46975
1.76414
1.05851
0.352861
50.2476
36.8318
30.7577
27.7189
25.9585
24.7594
23.8205
23.0086
22.2609
21.5451
20.8436
20.1456
19.4444
18.7367
18.0226
17.304
16.584
15.8658
15.1517
14.4423
13.7367
13.0335
12.3314
11.6294
10.927
10.2241
9.52062
8.81661
8.11217
7.40739
6.70236
5.99714
5.29179
4.58635
3.88084
3.17529
2.46971
1.76411
1.05849
0.352857
47.3828
35.6436
30.2937
27.5675
25.9403
24.7945
23.8728
23.0617
22.3076
21.5828
20.872
20.1658
19.4584
18.7468
18.0309
17.3118
16.5921
15.8739
15.1592
14.4486
13.7414
13.0366
12.3332
11.6302
10.9272
10.224
9.52033
8.81626
8.11183
7.40709
6.70212
5.99695
5.29165
4.58624
3.88076
3.17524
2.46967
1.76409
1.05848
0.352852
44.1111
34.36
29.8408
27.4548
25.9606
24.8603
23.9472
23.1298
22.3642
21.6269
20.9045
20.1887
19.4741
18.7579
18.0394
17.3193
16.5991
15.8808
15.1654
14.4537
13.7452
13.0391
12.3346
11.6309
10.9274
10.2239
9.52006
8.81595
8.11152
7.40683
6.7019
5.99678
5.29151
4.58614
3.88069
3.17519
2.46964
1.76406
1.05847
0.352845
40.6103
33.1148
29.4813
27.4244
26.0391
24.963
24.0433
23.2097
22.4264
21.6733
20.9378
20.2116
19.4895
18.7684
18.0469
17.3253
16.6045
15.8856
15.1698
14.4572
13.7478
13.0408
12.3356
11.6313
10.9275
10.2237
9.51981
8.81568
8.11128
7.40661
6.70172
5.99664
5.29141
4.58607
3.88064
3.17515
2.46961
1.76404
1.05845
0.352838
37.2516
32.1372
29.3229
27.5141
26.1802
25.0936
24.148
23.2885
22.4836
21.7135
20.9652
20.2298
19.5012
18.7759
18.0519
17.3288
16.6073
15.8881
15.1718
14.4589
13.749
13.0416
12.3359
11.6314
10.9274
10.2235
9.51962
8.81549
8.11111
7.40647
6.70161
5.99656
5.29135
4.58602
3.88061
3.17513
2.4696
1.76403
1.05844
0.352832
34.9004
31.7774
29.4398
27.6955
26.3301
25.2008
24.2206
23.3363
22.5144
21.7329
20.9771
20.2367
19.5051
18.7778
18.0527
17.3291
16.6073
15.888
15.1717
14.4587
13.7488
13.0413
12.3357
11.6312
10.9272
10.2234
9.5195
8.8154
8.11104
7.40643
6.70158
5.99654
5.29134
4.58602
3.8806
3.17512
2.4696
1.76403
1.05844
0.352829
32.5332
31.0986
29.3584
27.7801
26.4367
25.29
24.2866
23.3826
22.546
21.754
20.9909
20.2457
19.5107
18.7812
18.0547
17.3301
16.6077
15.8879
15.1715
14.4584
13.7485
13.0411
12.3356
11.6311
10.9271
10.2233
9.51947
8.81538
8.11103
7.40642
6.70157
5.99653
5.29133
4.58601
3.8806
3.17512
2.4696
1.76403
1.05845
0.352833
33.2344
31.2915
29.3342
27.705
26.3683
25.2406
24.2546
23.3632
22.5348
21.7479
20.9879
20.2443
19.5104
18.7815
18.0555
17.3313
16.6092
15.8897
15.1733
14.4601
13.75
13.0423
12.3365
11.6317
10.9275
10.2236
9.51959
8.81543
8.11103
7.40639
6.70153
5.99649
5.29129
4.58598
3.88057
3.1751
2.46958
1.76402
1.05843
0.352829
34.6342
31.9657
29.5657
27.7387
26.3303
25.1855
24.2029
23.321
22.5027
21.7246
20.9714
20.2331
19.503
18.7767
18.0524
17.3293
16.6078
15.8887
15.1727
14.4598
13.7499
13.0424
12.3367
11.632
10.9278
10.2238
9.51979
8.81558
8.11114
7.40647
6.70159
5.99653
5.29132
4.58599
3.88058
3.1751
2.46958
1.76402
1.05843
0.352832
36.2843
32.8743
29.9626
27.8701
26.342
25.1508
24.1555
23.2754
22.4641
21.6942
20.9488
20.217
19.4918
18.7689
18.0467
17.3248
16.6041
15.8854
15.1698
14.4576
13.7484
13.0415
12.3362
11.6318
10.9279
10.224
9.52002
8.81581
8.11134
7.40664
6.70172
5.99663
5.29139
4.58604
3.88062
3.17513
2.46959
1.76403
1.05844
0.352835
37.9257
33.8428
30.4343
28.0631
26.3959
25.1417
24.122
23.2362
22.4276
21.6639
20.9253
20.1998
19.4795
18.76
18.0398
17.3189
16.5986
15.8803
15.1653
14.4539
13.7457
13.0397
12.3352
11.6314
10.9279
10.2242
9.52028
8.81608
8.1116
7.40686
6.7019
5.99677
5.29149
4.58612
3.88067
3.17516
2.46962
1.76404
1.05845
0.352838
39.415
34.7588
30.9093
28.279
26.4745
25.1527
24.103
23.2066
22.3973
21.6373
20.9041
20.184
19.4681
18.7515
18.0328
17.3125
16.5923
15.8741
15.1597
14.4493
13.7423
13.0375
12.334
11.6309
10.9277
10.2243
9.52054
8.81638
8.11189
7.40711
6.70211
5.99693
5.29162
4.58621
3.88074
3.17521
2.46965
1.76406
1.05846
0.35284
40.6705
35.5515
31.3368
28.4857
26.5597
25.175
24.0951
23.1863
22.3741
21.616
20.8868
20.171
19.4587
18.7442
18.0264
17.3063
16.5859
15.8677
15.1537
14.4444
13.7387
13.0352
12.3326
11.6302
10.9276
10.2244
9.52079
8.81668
8.11218
7.40737
6.70232
5.9971
5.29175
4.58631
3.8808
3.17526
2.46968
1.76408
1.05847
0.352842
41.6437
36.1765
31.6825
28.6593
26.6364
25.1998
24.0939
23.1736
22.3578
21.6004
20.8739
20.1613
19.4516
18.7386
18.0213
17.301
16.5803
15.8618
15.1483
14.44
13.7355
13.033
12.3314
11.6297
10.9274
10.2246
9.52102
8.81695
8.11244
7.40759
6.70251
5.99724
5.29186
4.58639
3.88087
3.1753
2.46971
1.7641
1.05848
0.352843
42.3059
36.6061
31.9239
28.7834
26.6934
25.2202
24.0954
23.1664
22.3476
21.5902
20.8654
20.1549
19.4469
18.7347
18.0177
17.2972
16.5761
15.8575
15.1443
14.4367
13.733
13.0315
12.3305
11.6293
10.9274
10.2246
9.5212
8.81715
8.11263
7.40776
6.70265
5.99736
5.29195
4.58646
3.88091
3.17533
2.46973
1.76411
1.05848
0.352843
42.6407
36.8246
32.0476
28.8478
26.7236
25.2316
24.097
23.1633
22.3427
21.5853
20.8612
20.1517
19.4445
18.7328
18.0158
17.2952
16.5739
15.8552
15.1421
14.4349
13.7317
13.0306
12.33
11.6291
10.9273
10.2247
9.5213
8.81726
8.11274
7.40786
6.70272
5.99742
5.29199
4.58649
3.88094
3.17535
2.46974
1.76412
1.05849
0.352843
42.6407
36.8246
32.0476
28.8478
26.7236
25.2316
24.097
23.1633
22.3427
21.5853
20.8611
20.1517
19.4445
18.7328
18.0158
17.2952
16.5739
15.8552
15.1422
14.4349
13.7317
13.0306
12.33
11.6291
10.9273
10.2247
9.5213
8.81727
8.11274
7.40786
6.70273
5.99742
5.29199
4.58649
3.88094
3.17535
2.46974
1.76412
1.05849
0.352843
42.3059
36.6061
31.9239
28.7834
26.6934
25.2202
24.0954
23.1664
22.3476
21.5902
20.8653
20.1548
19.4468
18.7347
18.0177
17.2972
16.5761
15.8575
15.1443
14.4367
13.733
13.0315
12.3305
11.6293
10.9274
10.2247
9.52121
8.81716
8.11264
7.40777
6.70265
5.99736
5.29195
4.58646
3.88091
3.17533
2.46973
1.76411
1.05848
0.352843
41.6437
36.1765
31.6825
28.6593
26.6363
25.1998
24.0938
23.1736
22.3578
21.6003
20.8738
20.1613
19.4516
18.7386
18.0213
17.301
16.5803
15.8619
15.1484
14.44
13.7355
13.0331
12.3314
11.6297
10.9275
10.2246
9.52105
8.81697
8.11245
7.40761
6.70252
5.99725
5.29187
4.5864
3.88087
3.1753
2.46971
1.7641
1.05848
0.352842
40.6705
35.5515
31.3368
28.4857
26.5597
25.1749
24.095
23.1863
22.3741
21.6159
20.8868
20.171
19.4586
18.7442
18.0264
17.3063
16.5859
15.8677
15.1538
14.4445
13.7387
13.0352
12.3327
11.6303
10.9276
10.2245
9.52083
8.81671
8.1122
7.40738
6.70233
5.99711
5.29175
4.58631
3.88081
3.17526
2.46968
1.76408
1.05847
0.352841
39.4151
34.7588
30.9093
28.279
26.4745
25.1526
24.1029
23.2065
22.3972
21.6372
20.9041
20.184
19.4681
18.7515
18.0328
17.3125
16.5923
15.8742
15.1597
14.4494
13.7423
13.0376
12.334
11.6309
10.9278
10.2244
9.52058
8.81641
8.11192
7.40713
6.70212
5.99694
5.29163
4.58622
3.88074
3.17521
2.46965
1.76406
1.05846
0.352839
37.9257
33.8428
30.4342
28.063
26.3959
25.1416
24.1219
23.2361
22.4276
21.6638
20.9253
20.1998
19.4795
18.76
18.0398
17.3189
16.5986
15.8804
15.1654
14.454
13.7457
13.0398
12.3353
11.6315
10.9279
10.2242
9.52032
8.81612
8.11163
7.40688
6.70192
5.99678
5.2915
4.58613
3.88067
3.17517
2.46962
1.76404
1.05845
0.352837
36.2842
32.8742
29.9625
27.87
26.3419
25.1507
24.1554
23.2753
22.464
21.6942
20.9488
20.217
19.4917
18.7689
18.0467
17.3249
16.6041
15.8855
15.1699
14.4576
13.7484
13.0415
12.3363
11.6319
10.9279
10.2241
9.52007
8.81584
8.11137
7.40666
6.70174
5.99664
5.2914
4.58605
3.88062
3.17513
2.46959
1.76403
1.05844
0.352834
34.6341
31.9656
29.5655
27.7385
26.3302
25.1855
24.2028
23.3209
22.5026
21.7245
20.9714
20.2331
19.5029
18.7767
18.0524
17.3293
16.6079
15.8888
15.1727
14.4598
13.75
13.0425
12.3367
11.632
10.9279
10.2239
9.51983
8.81562
8.11117
7.40649
6.70161
5.99654
5.29133
4.586
3.88058
3.1751
2.46958
1.76402
1.05843
0.352831
33.2342
31.2913
29.334
27.7049
26.3682
25.2405
24.2545
23.3631
22.5347
21.7479
20.9878
20.2443
19.5103
18.7815
18.0554
17.3313
16.6092
15.8897
15.1733
14.4602
13.7501
13.0424
12.3365
11.6318
10.9276
10.2236
9.51963
8.81546
8.11105
7.40641
6.70155
5.9965
5.2913
4.58598
3.88057
3.1751
2.46958
1.76402
1.05843
0.352828
32.5328
31.0982
29.3581
27.78
26.4366
25.2899
24.2865
23.3826
22.5459
21.754
20.9909
20.2456
19.5107
18.7812
18.0547
17.3301
16.6077
15.888
15.1715
14.4585
13.7486
13.0412
12.3356
11.6311
10.9272
10.2234
9.51951
8.81541
8.11105
7.40643
6.70158
5.99654
5.29134
4.58602
3.8806
3.17512
2.46959
1.76403
1.05844
0.352831
30.61
29.9467
28.8048
27.5574
26.3708
25.2901
24.3102
23.4112
22.5724
21.7761
21.0086
20.2594
19.5211
18.7887
18.0596
17.3329
16.6088
15.8879
15.1707
14.4575
13.7476
13.0405
12.3352
11.6309
10.9271
10.2234
9.51957
8.81549
8.11113
7.4065
6.70164
5.99658
5.29137
4.58604
3.88062
3.17514
2.46961
1.76404
1.05845
0.352838
30.7417
29.9752
28.7595
27.4946
26.3174
25.2527
24.287
23.3983
22.566
21.7734
21.0078
20.2594
19.5215
18.7896
18.061
17.335
16.6115
15.891
15.174
14.4606
13.7503
13.0426
12.3367
11.6319
10.9277
10.2238
9.51973
8.81552
8.11109
7.40643
6.70156
5.99651
5.2913
4.58598
3.88057
3.1751
2.46957
1.76402
1.05843
0.352831
31.2594
30.3135
28.9148
27.54
26.3114
25.2283
24.2596
23.374
22.5466
21.7588
20.9972
20.252
19.5166
18.7864
18.0592
17.3341
16.6112
15.8912
15.1745
14.4613
13.7511
13.0434
12.3374
11.6325
10.9282
10.2241
9.51997
8.81568
8.11119
7.40649
6.70158
5.99651
5.2913
4.58597
3.88056
3.17508
2.46956
1.76401
1.05843
0.352831
31.9919
30.8329
29.2014
27.6679
26.3508
25.2247
24.2386
23.3486
22.5227
21.7388
20.9817
20.2407
19.5086
18.7807
18.055
17.3308
16.6085
15.8889
15.1727
14.46
13.7504
13.0432
12.3375
11.6328
10.9285
10.2244
9.52025
8.81592
8.11138
7.40663
6.70169
5.99658
5.29135
4.586
3.88058
3.1751
2.46957
1.76401
1.05843
0.352832
32.7902
31.4238
29.5532
27.846
26.424
25.2414
24.2283
23.3277
22.4999
21.7183
20.9651
20.2283
19.4996
18.7741
18.0496
17.326
16.604
15.8846
15.169
14.4572
13.7486
13.0422
12.3371
11.6328
10.9287
10.2247
9.52057
8.81622
8.11163
7.40683
6.70185
5.9967
5.29143
4.58606
3.88062
3.17512
2.46958
1.76402
1.05843
0.352832
33.5537
32.0055
29.9157
28.0424
26.515
25.2723
24.228
23.3133
22.481
21.7
20.9499
20.2169
19.4914
18.7676
18.044
17.3206
16.5984
15.8789
15.164
14.4534
13.746
13.0407
12.3364
11.6326
10.9289
10.225
9.52091
8.81654
8.11192
7.40708
6.70204
5.99685
5.29154
4.58614
3.88068
3.17516
2.46961
1.76403
1.05844
0.352832
34.2187
32.5222
30.2473
28.2298
26.608
25.3093
24.2345
23.3049
22.4669
21.6853
20.9374
20.2076
19.4848
18.7621
18.0387
17.3152
16.5926
15.8728
15.1585
14.4493
13.7433
13.0391
12.3356
11.6324
10.929
10.2253
9.52123
8.81687
8.11222
7.40732
6.70224
5.997
5.29166
4.58623
3.88074
3.1752
2.46964
1.76405
1.05844
0.352831
34.745
32.9365
30.5185
28.3873
26.6895
25.3446
24.2437
23.3008
22.4572
21.6746
20.928
20.2006
19.4799
18.7577
18.0343
17.3105
16.5873
15.8671
15.1535
14.4455
13.7408
13.0376
12.3349
11.6322
10.9291
10.2255
9.52152
8.81716
8.11248
7.40754
6.70241
5.99714
5.29176
4.5863
3.88079
3.17524
2.46966
1.76406
1.05845
0.35283
35.1077
33.2244
30.7093
28.5001
26.7494
25.3718
24.2521
23.2993
22.4513
21.6675
20.9218
20.1959
19.4765
18.7546
18.0311
17.307
16.5835
15.8629
15.1498
14.4428
13.739
13.0366
12.3345
11.632
10.9291
10.2257
9.52175
8.81738
8.11268
7.40771
6.70255
5.99725
5.29184
4.58636
3.88083
3.17527
2.46968
1.76407
1.05846
0.352829
35.2923
33.3717
30.8076
28.5588
26.781
25.3865
24.2569
23.2989
22.4485
21.6641
20.9187
20.1936
19.4748
18.753
18.0294
17.3052
16.5815
15.8608
15.1479
14.4413
13.738
13.036
12.3342
11.632
10.9292
10.2258
9.52187
8.8175
8.11278
7.4078
6.70262
5.9973
5.29188
4.58639
3.88085
3.17528
2.46969
1.76408
1.05846
0.352829
35.2923
33.3717
30.8076
28.5588
26.781
25.3865
24.2569
23.2989
22.4485
21.6641
20.9187
20.1936
19.4748
18.753
18.0294
17.3052
16.5815
15.8608
15.1479
14.4413
13.738
13.0361
12.3342
11.632
10.9292
10.2258
9.52187
8.81751
8.11279
7.4078
6.70262
5.9973
5.29188
4.58639
3.88086
3.17528
2.46969
1.76408
1.05846
0.352828
35.1077
33.2245
30.7094
28.5001
26.7494
25.3718
24.2521
23.2993
22.4513
21.6675
20.9218
20.1959
19.4765
18.7546
18.0311
17.307
16.5835
15.8629
15.1499
14.4428
13.739
13.0366
12.3345
11.6321
10.9292
10.2257
9.52176
8.81739
8.11269
7.40772
6.70256
5.99725
5.29184
4.58636
3.88083
3.17527
2.46968
1.76407
1.05846
0.352829
34.745
32.9365
30.5185
28.3873
26.6895
25.3446
24.2437
23.3008
22.4572
21.6745
20.928
20.2006
19.4799
18.7577
18.0343
17.3105
16.5873
15.8671
15.1536
14.4456
13.7409
13.0377
12.335
11.6322
10.9291
10.2255
9.52155
8.81718
8.11249
7.40756
6.70242
5.99715
5.29177
4.58631
3.88079
3.17524
2.46966
1.76406
1.05845
0.35283
34.2188
32.5222
30.2473
28.2298
26.608
25.3093
24.2345
23.3049
22.4669
21.6853
20.9374
20.2075
19.4848
18.7621
18.0387
17.3152
16.5926
15.8728
15.1586
14.4493
13.7433
13.0391
12.3357
11.6324
10.929
10.2253
9.52126
8.81689
8.11224
7.40734
6.70225
5.99701
5.29166
4.58623
3.88074
3.1752
2.46964
1.76405
1.05844
0.352831
33.5537
32.0055
29.9157
28.0423
26.5149
25.2723
24.228
23.3133
22.481
21.7
20.9499
20.2169
19.4914
18.7676
18.0439
17.3206
16.5984
15.879
15.164
14.4535
13.7461
13.0407
12.3365
11.6326
10.9289
10.225
9.52094
8.81657
8.11195
7.40709
6.70205
5.99686
5.29155
4.58615
3.88068
3.17516
2.46961
1.76403
1.05844
0.352831
32.7902
31.4238
29.5532
27.846
26.4239
25.2413
24.2282
23.3277
22.4998
21.7182
20.965
20.2283
19.4996
18.774
18.0496
17.326
16.604
15.8846
15.169
14.4573
13.7486
13.0422
12.3372
11.6328
10.9288
10.2248
9.52061
8.81625
8.11166
7.40685
6.70186
5.99671
5.29144
4.58607
3.88062
3.17513
2.46959
1.76402
1.05843
0.352831
31.9918
30.8328
29.2013
27.6678
26.3507
25.2246
24.2385
23.3485
22.5226
21.7387
20.9816
20.2406
19.5085
18.7807
18.055
17.3308
16.6085
15.8889
15.1727
14.4601
13.7505
13.0432
12.3376
11.6329
10.9286
10.2245
9.52029
8.81595
8.1114
7.40665
6.7017
5.99659
5.29135
4.58601
3.88058
3.1751
2.46957
1.76401
1.05843
0.352831
31.2592
30.3133
28.9147
27.5398
26.3113
25.2282
24.2595
23.374
22.5465
21.7587
20.9971
20.252
19.5165
18.7864
18.0591
17.3341
16.6113
15.8912
15.1746
14.4613
13.7512
13.0435
12.3375
11.6326
10.9283
10.2242
9.52001
8.81571
8.11122
7.40651
6.7016
5.99652
5.2913
4.58598
3.88056
3.17509
2.46956
1.764
1.05842
0.35283
30.7414
29.9749
28.7593
27.4944
26.3173
25.2526
24.2869
23.3982
22.5659
21.7734
21.0077
20.2594
19.5215
18.7895
18.061
17.335
16.6115
15.8911
15.1741
14.4606
13.7504
13.0427
12.3368
11.632
10.9278
10.2238
9.51976
8.81555
8.11112
7.40645
6.70157
5.99651
5.29131
4.58598
3.88057
3.1751
2.46957
1.76401
1.05843
0.35283
30.6096
29.9463
28.8045
27.5571
26.3707
25.29
24.3102
23.4112
22.5724
21.7761
21.0086
20.2594
19.521
18.7887
18.0596
17.3329
16.6088
15.8879
15.1708
14.4575
13.7477
13.0406
12.3352
11.631
10.9272
10.2234
9.5196
8.81552
8.11115
7.40652
6.70165
5.99659
5.29138
4.58604
3.88062
3.17514
2.4696
1.76404
1.05845
0.352837
29.1871
28.833
28.0863
27.1458
26.1559
25.1889
24.2704
23.4026
22.5785
21.7884
21.0226
20.273
19.533
18.7982
18.0663
17.3368
16.6102
15.8875
15.1694
14.4558
13.7462
13.0394
12.3346
11.6307
10.9271
10.2236
9.51978
8.81571
8.11133
7.40668
6.70178
5.99669
5.29145
4.5861
3.88066
3.17516
2.46962
1.76405
1.05846
0.352844
29.1488
28.7968
28.0293
27.0861
26.1064
25.1534
24.2475
23.3892
22.5713
21.7847
21.0207
20.2719
19.5324
18.7983
18.0675
17.3392
16.6138
15.8919
15.174
14.4601
13.7499
13.0423
12.3366
11.632
10.9279
10.224
9.51996
8.81573
8.11127
7.40657
6.70167
5.99658
5.29136
4.58602
3.8806
3.17511
2.46958
1.76402
1.05844
0.352833
29.2959
28.9336
28.1059
27.1125
26.1041
25.1387
24.2297
23.3727
22.5576
21.774
21.0127
20.2662
19.5286
18.7959
18.0662
17.3389
16.6142
15.8928
15.1753
14.4618
13.7516
13.0439
12.3379
11.633
10.9287
10.2245
9.52027
8.81591
8.11136
7.40661
6.70167
5.99656
5.29133
4.58599
3.88057
3.17509
2.46956
1.764
1.05842