# vtk DataFile Version 2.0
I need something to put here
ASCII

DATASET STRUCTURED_GRID
DIMENSIONS 41 21 21
POINTS 18081 float
0.000000 0.000000 0.000000
0.100000 0.000000 0.000000
0.200000 0.000000 0.000000
0.300000 0.000000 0.000000
0.400000 0.000000 0.000000
0.500000 0.000000 0.000000
0.600000 0.000000 0.000000
0.700000 0.000000 0.000000
0.800000 0.000000 0.000000
0.900000 0.000000 0.000000
1.000000 0.000000 0.000000
1.100000 0.000000 0.000000
1.200000 0.000000 0.000000
1.300000 0.000000 0.000000
1.400000 0.000000 0.000000
1.500000 0.000000 0.000000
1.600000 0.000000 0.000000
1.700000 0.000000 0.000000
1.800000 0.000000 0.000000
1.900000 0.000000 0.000000
2.000000 0.000000 0.000000
2.100000 0.000000 0.000000
2.200000 0.000000 0.000000
2.300000 0.000000 0.000000
2.400000 0.000000 0.000000
2.500000 0.000000 0.000000
2.600000 0.000000 0.000000
2.700000 0.000000 0.000000
2.800000 0.000000 0.000000
2.900000 0.000000 0.000000
3.000000 0.000000 0.000000
3.100000 0.000000 0.000000
3.200000 0.000000 0.000000
3.300000 0.000000 0.000000
3.400000 0.000000 0.000000
3.500000 0.000000 0.000000
3.600000 0.000000 0.000000
3.700000 0.000000 0.000000
3.800000 0.000000 0.000000
3.900000 0.000000 0.000000
4.000000 0.000000 0.000000
0.000000 0.100000 0.000000
0.100000 0.100000 0.000000
0.200000 0.100000 0.000000
0.300000 0.100000 0.000000
0.400000 0.100000 0.000000
0.500000 0.100000 0.000000
0.600000 0.100000 0.000000
0.700000 0.100000 0.000000
0.800000 0.100000 0.000000
0.900000 0.100000 0.000000
1.000000 0.100000 0.000000
1.100000 0.100000 0.000000
1.200000 0.100000 0.000000
1.300000 0.100000 0.000000
1.400000 0.100000 0.000000
1.500000 0.100000 0.000000
1.600000 0.100000 0.000000
1.700000 0.100000 0.000000
1.800000 0.100000 0.000000
1.900000 0.100000 0.000000
2.000000 0.100000 0.000000
2.100000 0.100000 0.000000
2.200000 0.100000 0.000000
2.300000 0.100000 0.000000
2.400000 0.100000 0.000000
2.500000 0.100000 0.000000
2.600000 0.100000 0.000000
2.700000 0.100000 0.000000
2.800000 0.100000 0.000000
2.900000 0.100000 0.000000
3.000000 0.100000 0.000000
3.100000 0.100000 0.000000
3.200000 0.100000 0.000000
3.300000 0.100000 0.000000
3.400000 0.100000 0.000000
3.500000 0.100000 0.000000
3.600000 0.100000 0.000000
3.700000 0.100000 0.000000
3.800000 0.100000 0.000000
3.900000 0.100000 0.000000
4.000000 0.100000 0.000000
0.000000 0.200000 0.000000
0.100000 0.200000 0.000000
0.200000 0.200000 0.000000
0.300000 0.200000 0.000000
0.400000 0.200000 0.000000
0.500000 0.200000 0.000000
0.600000 0.200000 0.000000
0.700000 0.200000 0.000000
0.800000 0.200000 0.000000
0.900000 0.200000 0.000000
1.000000 0.200000 0.000000
1.100000 0.200000 0.000000
1.200000 0.200000 0.000000
1.300000 0.200000 0.000000
1.400000 0.200000 0.000000
1.500000 0.200000 0.000000
1.600000 0.200000 0.000000
1.700000 0.200000 0.000000
1.800000 0.200000 0.000000
1.900000 0.200000 0.000000
2.000000 0.200000 0.000000
2.100000 0.200000 0.000000
2.200000 0.200000 0.000000
2.300000 0.200000 0.000000
2.400000 0.200000 0.000000
2.500000 0.200000 0.000000
2.600000 0.200000 0.000000
2.700000 0.200000 0.000000
2.800000 0.200000 0.000000
2.900000 0.200000 0.000000
3.000000 0.200000 0.000000
3.100000 0.200000 0.000000
3.200000 0.200000 0.000000
3.300000 0.200000 0.000000
3.400000 0.200000 0.000000
3.500000 0.200000 0.000000
3.600000 0.200000 0.000000
3.700000 0.200000 0.000000
3.800000 0.200000 0.000000
3.900000 0.200000 0.000000
4.000000 0.200000 0.000000
0.000000 0.300000 0.000000
0.100000 0.300000 0.000000
0.200000 0.300000 0.000000
0.300000 0.300000 0.000000
0.400000 0.300000 0.000000
0.500000 0.300000 0.000000
0.600000 0.300000 0.000000
0.700000 0.300000 0.000000
0.800000 0.300000 0.000000
0.900000 0.300000 0.000000
1.000000 0.300000 0.000000
1.100000 0.300000 0.000000
1.200000 0.300000 0.000000
1.300000 0.300000 0.000000
1.400000 0.300000 0.000000
1.500000 0.300000 0.000000
1.600000 0.300000 0.000000
1.700000 0.300000 0.000000
1.800000 0.300000 0.000000
1.900000 0.300000 0.000000
2.000000 0.300000 0.000000
2.100000 0.300000 0.000000
2.200000 0.300000 0.000000
2.300000 0.300000 0.000000
2.400000 0.300000 0.000000
2.500000 0.300000 0.000000
2.600000 0.300000 0.000000
2.700000 0.300000 0.000000
2.800000 0.300000 0.000000
2.900000 0.300000 0.000000
3.000000 0.300000 0.000000
3.100000 0.300000 0.000000
3.200000 0.300000 0.000000
3.300000 0.300000 0.000000
3.400000 0.300000 0.000000
3.500000 0.300000 0.000000
3.600000 0.300000 0.000000
3.700000 0.300000 0.000000
3.800000 0.300000 0.000000
3.900000 0.300000 0.000000
4.000000 0.300000 0.000000
0.000000 0.400000 0.000000
0.100000 0.400000 0.000000
0.200000 0.400000 0.000000
0.300000 0.400000 0.000000
0.400000 0.400000 0.000000
0.500000 0.400000 0.000000
0.600000 0.400000 0.000000
0.700000 0.400000 0.000000
0.800000 0.400000 0.000000
0.900000 0.400000 0.000000
1.000000 0.400000 0.000000
1.100000 0.400000 0.000000
1.200000 0.400000 0.000000
1.300000 0.400000 0.000000
1.400000 0.400000 0.000000
1.500000 0.400000 0.000000
1.600000 0.400000 0.000000
1.700000 0.400000 0.000000
1.800000 0.400000 0.000000
1.900000 0.400000 0.000000
2.000000 0.400000 0.000000
2.100000 0.400000 0.000000
2.200000 0.400000 0.000000
2.300000 0.400000 0.000000
2.400000 0.400000 0.000000
2.500000 0.400000 0.000000
2.600000 0.400000 0.000000
2.700000 0.400000 0.000000
2.800000 0.400000 0.000000
2.900000 0.400000 0.000000
3.000000 0.400000 0.000000
3.100000 0.400000 0.000000
3.200000 0.400000 0.000000
3.300000 0.400000 0.000000
3.400000 0.400000 0.000000
3.500000 0.400000 0.000000
3.600000 0.400000 0.000000
3.700000 0.400000 0.000000
3.800000 0.400000 0.000000
3.900000 0.400000 0.000000
4.000000 0.400000 0.000000
0.000000 0.500000 0.000000
0.100000 0.500000 0.000000
0.200000 0.500000 0.000000
0.300000 0.500000 0.000000
0.400000 0.500000 0.000000
0.500000 0.500000 0.000000
0.600000 0.500000 0.000000
0.700000 0.500000 0.000000
0.800000 0.500000 0.000000
0.900000 0.500000 0.000000
1.000000 0.500000 0.000000
1.100000 0.500000 0.000000
1.200000 0.500000 0.000000
1.300000 0.500000 0.000000
1.400000 0.500000 0.000000
1.500000 0.500000 0.000000
1.600000 0.500000 0.000000
1.700000 0.500000 0.000000
1.800000 0.500000 0.000000
1.900000 0.500000 0.000000
2.000000 0.500000 0.000000
2.100000 0.500000 0.000000
2.200000 0.500000 0.000000
2.300000 0.500000 0.000000
2.400000 0.500000 0.000000
2.500000 0.500000 0.000000
2.600000 0.500000 0.000000
2.700000 0.500000 0.000000
2.800000 0.500000 0.000000
2.900000 0.500000 0.000000
3.000000 0.500000 0.000000
3.100000 0.500000 0.000000
3.200000 0.500000 0.000000
3.300000 0.500000 0.000000
3.400000 0.500000 0.000000
3.500000 0.500000 0.000000
3.600000 0.500000 0.000000
3.700000 0.500000 0.000000
3.800000 0.500000 0.000000
3.900000 0.500000 0.000000
4.000000 0.500000 0.000000
0.000000 0.600000 0.000000
0.100000 0.600000 0.000000
0.200000 0.600000 0.000000
0.300000 0.600000 0.000000
0.400000 0.600000 0.000000
0.500000 0.600000 0.000000
0.600000 0.600000 0.000000
0.700000 0.600000 0.000000
0.800000 0.600000 0.000000
0.900000 0.600000 0.000000
1.000000 0.600000 0.000000
1.100000 0.600000 0.000000
1.200000 0.600000 0.000000
1.300000 0.600000 0.000000
1.400000 0.600000 0.000000
1.500000 0.600000 0.000000
1.600000 0.600000 0.000000
1.700000 0.600000 0.000000
1.800000 0.600000 0.000000
1.900000 0.600000 0.000000
2.000000 0.600000 0.000000
2.100000 0.600000 0.000000
2.200000 0.600000 0.000000
2.300000 0.600000 0.000000
2.400000 0.600000 0.000000
2.500000 0.600000 0.000000
2.600000 0.600000 0.000000
2.700000 0.600000 0.000000
2.800000 0.600000 0.000000
2.900000 0.600000 0.000000
3.000000 0.600000 0.000000
3.100000 0.600000 0.000000
3.200000 0.600000 0.000000
3.300000 0.600000 0.000000
3.400000 0.600000 0.000000
3.500000 0.600000 0.000000
3.600000 0.600000 0.000000
3.700000 0.600000 0.000000
3.800000 0.600000 0.000000
3.900000 0.600000 0.000000
4.000000 0.600000 0.000000
0.000000 0.700000 0.000000
0.100000 0.700000 0.000000
0.200000 0.700000 0.000000
0.300000 0.700000 0.000000
0.400000 0.700000 0.000000
0.500000 0.700000 0.000000
0.600000 0.700000 0.000000
0.700000 0.700000 0.000000
0.800000 0.700000 0.000000
0.900000 0.700000 0.000000
1.000000 0.700000 0.000000
1.100000 0.700000 0.000000
1.200000 0.700000 0.000000
1.300000 0.700000 0.000000
1.400000 0.700000 0.000000
1.500000 0.700000 0.000000
1.600000 0.700000 0.000000
1.700000 0.700000 0.000000
1.800000 0.700000 0.000000
1.900000 0.700000 0.000000
2.000000 0.700000 0.000000
2.100000 0.700000 0.000000
2.200000 0.700000 0.000000
2.300000 0.700000 0.000000
2.400000 0.700000 0.000000
2.500000 0.700000 0.000000
2.600000 0.700000 0.000000
2.700000 0.700000 0.000000
2.800000 0.700000 0.000000
2.900000 0.700000 0.000000
3.000000 0.700000 0.000000
3.100000 0.700000 0.000000
3.200000 0.700000 0.000000
3.300000 0.700000 0.000000
3.400000 0.700000 0.000000
3.500000 0.700000 0.000000
3.600000 0.700000 0.000000
3.700000 0.700000 0.000000
3.800000 0.700000 0.000000
3.900000 0.700000 0.000000
4.000000 0.700000 0.000000
0.000000 0.800000 0.000000
0.100000 0.800000 0.000000
0.200000 0.800000 0.000000
0.300000 0.800000 0.000000
0.400000 0.800000 0.000000
0.500000 0.800000 0.000000
0.600000 0.800000 0.000000
0.700000 0.800000 0.000000
0.800000 0.800000 0.000000
0.900000 0.800000 0.000000
1.000000 0.800000 0.000000
1.100000 0.800000 0.000000
1.200000 0.800000 0.000000
1.300000 0.800000 0.000000
1.400000 0.800000 0.000000
1.500000 0.800000 0.000000
1.600000 0.800000 0.000000
1.700000 0.800000 0.000000
1.800000 0.800000 0.000000
1.900000 0.800000 0.000000
2.000000 0.800000 0.000000
2.100000 0.800000 0.000000
2.200000 0.800000 0.000000
2.300000 0.800000 0.000000
2.400000 0.800000 0.000000
2.500000 0.800000 0.000000
2.600000 0.800000 0.000000
2.700000 0.800000 0.000000
2.800000 0.800000 0.000000
2.900000 0.800000 0.000000
3.000000 0.800000 0.000000
3.100000 0.800000 0.000000
3.200000 0.800000 0.000000
3.300000 0.800000 0.000000
3.400000 0.800000 0.000000
3.500000 0.800000 0.000000
3.600000 0.800000 0.000000
[...]
CELL_DATA 16000
SCALARS pressure float 1
LOOKUP_TABLE default
34.7694
31.6462
29.3085
27.5643
26.1993
25.0707
24.0917
23.2093
22.3902
21.6126
20.8619
20.1281
19.4043
18.6863
17.9715
17.2587
16.5479
15.8392
15.1328
14.4286
13.7261
13.0248
12.324
11.6232
10.922
10.2202
9.51768
8.81452
8.11077
7.40653
6.7019
5.99696
5.29179
4.58646
3.88101
3.17547
2.46988
1.76424
1.05857
0.352877
37.1205
32.006
29.1916
27.383
26.0494
24.9635
24.0191
23.1615
22.3594
21.5932
20.85
20.1211
19.4005
18.6843
17.9706
17.2584
16.5479
15.8393
15.133
14.4288
13.7264
13.0251
12.3243
11.6234
10.9222
10.2203
9.51778
8.81459
8.11082
7.40656
6.70191
5.99697
5.2918
4.58646
3.881
3.17547
2.46987
1.76424
1.05857
0.352881
40.4791
32.9835
29.3499
27.2931
25.9082
24.8328
23.9142
23.0824
22.3018
21.5524
20.8219
20.1023
19.3882
18.6764
17.9654
17.2549
16.5452
15.8373
15.1314
14.4277
13.7258
13.0249
12.3244
11.6237
10.9226
10.2207
9.51814
8.81489
8.11106
7.40675
6.70205
5.99707
5.29187
4.58651
3.88104
3.17549
2.46989
1.76425
1.05858
0.352889
43.9797
34.2285
29.7093
27.3233
25.8293
24.7296
23.8176
23.0018
22.2386
21.505
20.7875
20.0782
19.3717
18.6652
17.9574
17.2488
16.5403
15.8331
15.1281
14.4253
13.7243
13.0243
12.3244
11.6241
10.9231
10.2213
9.5187
8.81539
8.11147
7.40707
6.7023
5.99725
5.29199
4.5866
3.8811
3.17553
2.46991
1.76427
1.0586
0.352897
47.2513
35.5119
30.1619
27.4357
25.8086
24.6633
23.7424
22.9327
22.1808
21.4593
20.7533
20.0535
19.3544
18.6529
17.9482
17.2413
16.5337
15.8274
15.1234
14.4219
13.7222
13.0232
12.3242
11.6245
10.9238
10.2221
9.51943
8.81603
8.112
7.40748
6.70261
5.99748
5.29216
4.58672
3.88118
3.17559
2.46995
1.76429
1.05861
0.352904
50.1158
36.6998
30.6255
27.5866
25.8263
24.6274
23.6891
22.8784
22.1325
21.4197
20.7228
20.0312
19.3385
18.6414
17.9392
17.2334
16.5265
15.8207
15.1177
14.4177
13.7196
13.0221
12.324
11.6249
10.9245
10.2229
9.52027
8.81676
8.1126
7.40796
6.70298
5.99775
5.29236
4.58685
3.88127
3.17565
2.46999
1.76432
1.05863
0.352909
52.4788
37.7133
31.045
27.7414
25.8627
24.6122
23.6538
22.8382
22.0948
21.3879
20.6978
20.0128
19.3254
18.6316
17.9312
17.2261
16.5193
15.8139
15.1119
14.4135
13.717
13.0209
12.3239
11.6254
10.9254
10.2238
9.52114
8.81752
8.11322
7.40844
6.70334
5.99802
5.29255
4.58699
3.88137
3.17571
2.47003
1.76434
1.05864
0.352913
54.2862
38.5052
31.3845
27.8757
25.9023
24.6086
23.6319
22.8104
22.0675
21.3641
20.6789
19.9989
19.3154
18.6241
17.9248
17.2199
16.5131
15.8079
15.1068
14.4097
13.7147
13.0199
12.3238
11.6259
10.9261
10.2247
9.52193
8.8182
8.11377
7.40888
6.70367
5.99826
5.29273
4.58711
3.88145
3.17577
2.47007
1.76437
1.05865
0.352916
55.5059
39.0465
31.6217
27.9732
25.9342
24.6098
23.6194
22.7931
22.0498
21.3484
20.6663
19.9895
19.3087
18.619
17.9203
17.2155
16.5086
15.8035
15.103
14.4069
13.7131
13.0192
12.3239
11.6264
10.9268
10.2253
9.52254
8.81872
8.1142
7.40921
6.70392
5.99845
5.29286
4.5872
3.88152
3.17581
2.4701
1.76438
1.05866
0.352917
56.1198
39.3209
31.7433
28.0242
25.9518
24.6115
23.6138
22.7847
22.0411
21.3406
20.66
19.9848
19.3053
18.6164
17.918
17.2132
16.5062
15.8012
15.101
14.4055
13.7123
13.0189
12.3239
11.6266
10.9271
10.2257
9.52287
8.819
8.11442
7.40939
6.70405
5.99854
5.29293
4.58725
3.88155
3.17583
2.47011
1.76439
1.05866
0.352918
56.1198
39.3209
31.7433
28.0242
25.9518
24.6115
23.6138
22.7847
22.0411
21.3406
20.66
19.9848
19.3053
18.6164
17.918
17.2132
16.5062
15.8012
15.101
14.4055
13.7123
13.0189
12.3239
11.6266
10.9271
10.2257
9.52287
8.819
8.11443
7.40939
6.70405
5.99854
5.29293
4.58725
3.88155
3.17583
2.47011
1.76439
1.05866
0.352918
55.5059
39.0465
31.6217
27.9732
25.9342
24.6098
23.6194
22.793
22.0498
21.3484
20.6663
19.9895
19.3087
18.6189
17.9203
17.2155
16.5086
15.8035
15.103
14.4069
13.7131
13.0192
12.3239
11.6264
10.9268
10.2253
9.52254
8.81872
8.1142
7.40921
6.70392
5.99845
5.29286
4.58721
3.88152
3.17581
2.4701
1.76438
1.05866
0.352917
54.2862
38.5051
31.3845
27.8756
25.9022
24.6085
23.6318
22.8104
22.0675
21.3641
20.6789
19.9988
19.3154
18.624
17.9247
17.2199
16.5131
15.8079
15.1068
14.4097
13.7147
13.0199
12.3238
11.6259
10.9261
10.2247
9.52194
8.8182
8.11378
7.40888
6.70368
5.99827
5.29273
4.58711
3.88145
3.17577
2.47007
1.76437
1.05865
0.352915
52.4788
37.7133
31.045
27.7414
25.8626
24.6121
23.6538
22.8382
22.0948
21.3878
20.6977
20.0127
19.3253
18.6315
17.9311
17.226
16.5192
15.8139
15.1119
14.4134
13.717
13.0209
12.3239
11.6254
10.9254
10.2239
9.52115
8.81752
8.11322
7.40845
6.70335
5.99802
5.29255
4.58699
3.88137
3.17571
2.47004
1.76434
1.05864
0.352913
50.1158
36.6998
30.6255
27.5866
25.8262
24.6274
23.6891
22.8783
22.1324
21.4197
20.7227
20.0311
19.3385
18.6413
17.9391
17.2334
16.5264
15.8206
15.1177
14.4177
13.7196
13.0221
12.324
11.6249
10.9245
10.2229
9.52028
8.81677
8.11261
7.40797
6.70298
5.99775
5.29236
4.58685
3.88128
3.17565
2.46999
1.76432
1.05863
0.352909
47.2512
35.5119
30.1618
27.4356
25.8085
24.6632
23.7423
22.9326
22.1807
21.4592
20.7532
20.0534
19.3543
18.6528
17.9481
17.2412
16.5337
15.8273
15.1233
14.4218
13.7222
13.0232
12.3242
11.6245
10.9238
10.2221
9.51944
8.81604
8.112
7.40749
6.70262
5.99748
5.29217
4.58672
3.88118
3.17559
2.46995
1.76429
1.05861
0.352904
43.9797
34.2284
29.7092
27.3232
25.8292
24.7295
23.8175
23.0018
22.2386
21.5049
20.7874
20.0781
19.3716
18.6651
17.9573
17.2487
16.5402
15.8331
15.1281
14.4253
13.7243
13.0243
12.3244
11.6241
10.9231
10.2213
9.51871
8.8154
8.11147
7.40707
6.7023
5.99725
5.292
4.5866
3.8811
3.17553
2.46991
1.76427
1.0586
0.352897
40.4789
32.9834
29.3498
27.293
25.9081
24.8327
23.9141
23.0823
22.3017
21.5523
20.8218
20.1022
19.3881
18.6763
17.9653
17.2548
16.5452
15.8372
15.1314
14.4277
13.7258
13.0249
12.3244
11.6237
10.9226
10.2207
9.51815
8.8149
8.11107
7.40676
6.70206
5.99707
5.29187
4.58651
3.88104
3.17549
2.46989
1.76425
1.05858
0.352889
37.1203
32.0058
29.1914
27.3828
26.0493
24.9634
24.019
23.1614
22.3593
21.5931
20.8499
20.121
19.4004
18.6842
17.9705
17.2584
16.5478
15.8393
15.1329
14.4288
13.7263
13.0251
12.3243
11.6234
10.9222
10.2203
9.51779
8.8146
8.11083
7.40657
6.70192
5.99697
5.2918
4.58646
3.881
3.17547
2.46987
1.76424
1.05857
0.352881
34.769
31.6459
29.3083
27.5642
26.1992
25.0706
24.0917
23.2093
22.3901
21.6125
20.8618
20.128
19.4043
18.6862
17.9714
17.2586
16.5478
15.8391
15.1327
14.4285
13.7261
13.0248
12.324
11.6232
10.922
10.2202
9.51768
8.81452
8.11078
7.40654
6.7019
5.99696
5.29179
4.58646
3.88101
3.17547
2.46988
1.76424
1.05857
0.352877
32.4019
30.9671
29.2269
27.6488
26.3058
25.1598
24.1577
23.2556
22.4217
21.6336
20.8756
20.1369
19.4099
18.6897
17.9734
17.2597
16.5483
15.8392
15.1327
14.4284
13.726
13.0247
12.324
11.6232
10.922
10.2202
9.51768
8.81451
8.11076
7.40652
6.70189
5.99695
5.29178
4.58645
3.881
3.17546
2.46987
1.76424
1.05857
0.352881
33.1032
31.1601
29.2028
27.5738
26.2375
25.1107
24.126
23.2366
22.411
21.6281
20.8732
20.1362
19.4101
18.6904
17.9744
17.261
16.5497
15.8407
15.134
14.4296
13.7269
13.0254
12.3244
11.6234
10.922
10.2201
9.51755
8.81437
8.11062
7.40639
6.70177
5.99685
5.29171
4.58639
3.88095
3.17543
2.46984
1.76422
1.05856
0.352876
34.503
31.8344
29.4343
27.6075
26.1996
25.0557
24.0743
23.1944
22.3789
21.6046
20.8566
20.1249
19.4026
18.6855
17.9713
17.2589
16.5484
15.8398
15.1335
14.4293
13.7269
13.0255
12.3246
11.6236
10.9223
10.2203
9.51772
8.81449
8.11071
7.40644
6.70181
5.99687
5.29171
4.58639
3.88095
3.17542
2.46984
1.76421
1.05856
0.352879
36.153
32.7429
29.8311
27.7388
26.2111
25.0207
24.0266
23.1484
22.3398
21.5737
20.8334
20.108
19.3907
18.6772
17.9654
17.2545
16.5448
15.8369
15.1313
14.4278
13.726
13.0252
12.3247
11.624
10.9227
10.2208
9.51812
8.81483
8.11098
7.40665
6.70196
5.99698
5.29179
4.58644
3.88098
3.17544
2.46985
1.76422
1.05856
0.352882
37.7943
33.7112
30.3026
27.9316
26.2648
25.0112
23.9926
23.1084
22.3024
21.5423
20.8087
20.0896
19.3774
18.6676
17.958
17.2486
16.5398
15.8326
15.1278
14.4253
13.7245
13.0245
12.3246
11.6243
10.9232
10.2214
9.5187
8.81533
8.11138
7.40697
6.7022
5.99716
5.29191
4.58653
3.88104
3.17548
2.46987
1.76423
1.05857
0.352885
39.2834
34.627
30.7774
28.1472
26.343
25.0216
23.9728
23.0779
22.2709
21.5142
20.7859
20.0723
19.3647
18.658
17.9505
17.2421
16.5339
15.8274
15.1235
14.4222
13.7227
13.0237
12.3246
11.6247
10.9239
10.2221
9.51937
8.81592
8.11187
7.40736
6.70249
5.99737
5.29207
4.58664
3.88111
3.17553
2.46991
1.76425
1.05858
0.352886
40.5384
35.4194
31.2046
28.3535
26.4277
25.0433
23.9641
23.0566
22.2464
21.4914
20.7668
20.0575
19.3537
18.6496
17.9436
17.2359
16.5281
15.8221
15.1191
14.4191
13.7208
13.0229
12.3245
11.6251
10.9246
10.2228
9.52008
8.81654
8.11238
7.40776
6.7028
5.9976
5.29223
4.58675
3.88119
3.17558
2.46994
1.76427
1.05859
0.352886
41.5114
36.044
31.5499
28.5267
26.5038
25.0675
23.9621
23.0428
22.2288
21.4743
20.7523
20.0462
19.3452
18.643
17.9379
17.2307
16.5231
15.8173
15.1152
14.4162
13.7191
13.0222
12.3245
11.6256
10.9252
10.2235
9.52073
8.81711
8.11285
7.40812
6.70308
5.9978
5.29238
4.58686
3.88127
3.17563
2.46997
1.76429
1.0586
0.352886
42.1733
36.4734
31.791
28.6505
26.5605
25.0874
23.963
23.0349
22.2176
21.4629
20.7424
20.0384
19.3393
18.6383
17.9339
17.2269
16.5194
15.8139
15.1123
14.4142
13.7179
13.0218
12.3246
11.6259
10.9257
10.224
9.52123
8.81754
8.1132
7.4084
6.70329
5.99796
5.29249
4.58694
3.88132
3.17567
2.46999
1.7643
1.0586
0.352886
42.5079
36.6917
31.9147
28.7147
26.5905
25.0985
23.9642
23.0312
22.2122
21.4573
20.7375
20.0345
19.3363
18.636
17.9318
17.2249
16.5175
15.8121
15.1108
14.4131
13.7173
13.0215
12.3246
11.6261
10.926
10.2243
9.5215
8.81777
8.11339
7.40855
6.7034
5.99804
5.29255
4.58698
3.88135
3.17569
2.47001
1.76431
1.05861
0.352885
42.5079
36.6917
31.9147
28.7147
26.5905
25.0985
23.9642
23.0312
22.2122
21.4573
20.7375
20.0345
19.3363
18.6359
17.9318
17.2249
16.5175
15.812
15.1108
14.4131
13.7173
13.0215
12.3246
11.6261
10.926
10.2243
9.5215
8.81777
8.11339
7.40855
6.7034
5.99804
5.29255
4.58698
3.88135
3.17569
2.47001
1.76431
1.05861
0.352885
42.1733
36.4734
31.791
28.6505
26.5604
25.0874
23.963
23.0348
22.2176
21.4629
20.7424
20.0384
19.3393
18.6383
17.9339
17.2269
16.5194
15.8139
15.1123
14.4142
13.7179
13.0218
12.3246
11.6259
10.9257
10.224
9.52123
8.81754
8.1132
7.4084
6.70329
5.99796
5.29249
4.58694
3.88132
3.17567
2.46999
1.7643
1.0586
0.352886
41.5114
36.044
31.5499
28.5267
26.5038
25.0674
23.9621
23.0428
22.2288
21.4742
20.7522
20.0461
19.3451
18.6429
17.9379
17.2307
16.5231
15.8173
15.1152
14.4162
13.7191
13.0222
12.3245
11.6256
10.9252
10.2235
9.52074
8.81711
8.11285
7.40813
6.70308
5.99781
5.29238
4.58686
3.88127
3.17563
2.46997
1.76429
1.0586
0.352886
40.5385
35.4194
31.2046
28.3534
26.4276
25.0432
23.964
23.0565
22.2463
21.4913
20.7668
20.0575
19.3536
18.6496
17.9435
17.2359
16.5281
15.822
15.1191
14.419
13.7207
13.0229
12.3245
11.6251
10.9246
10.2228
9.52009
8.81655
8.11239
7.40776
6.7028
5.9976
5.29224
4.58675
3.88119
3.17558
2.46994
1.76427
1.05859
0.352886
39.2834
34.627
30.7774
28.1471
26.3429
25.0216
23.9727
23.0778
22.2708
21.5142
20.7858
20.0722
19.3646
18.658
17.9504
17.242
16.5339
15.8274
15.1235
14.4222
13.7226
13.0237
12.3246
11.6247
10.9239
10.2221
9.51938
8.81593
8.11188
7.40736
6.7025
5.99738
5.29207
4.58664
3.88112
3.17553
2.46991
1.76425
1.05858
0.352886
37.7943
33.7112
30.3026
27.9315
26.2647
25.0111
23.9925
23.1084
22.3024
21.5422
20.8086
20.0895
19.3773
18.6675
17.958
17.2485
16.5397
15.8326
15.1278
14.4253
13.7245
13.0245
12.3246
11.6243
10.9232
10.2214
9.5187
8.81534
8.11139
7.40698
6.7022
5.99716
5.29192
4.58653
3.88104
3.17548
2.46987
1.76423
1.05857
0.352884
36.153
32.7428
29.831
27.7387
26.2111
25.0206
24.0266
23.1483
22.3397
21.5736
20.8333
20.1079
19.3907
18.6772
17.9653
17.2544
16.5448
15.8369
15.1313
14.4278
13.726
13.0252
12.3247
11.624
10.9227
10.2208
9.51813
8.81484
8.11098
7.40666
6.70196
5.99698
5.29179
4.58644
3.88098
3.17544
2.46985
1.76422
1.05856
0.352882
34.5028
31.8342
29.4341
27.6074
26.1995
25.0556
24.0742
23.1943
22.3788
21.6046
20.8566
20.1248
19.4025
18.6854
17.9712
17.2589
16.5483
15.8398
15.1335
14.4293
13.7269
13.0255
12.3246
11.6237
10.9223
10.2203
9.51773
8.8145
8.11071
7.40645
6.70181
5.99687
5.29172
4.58639
3.88095
3.17542
2.46984
1.76421
1.05856
0.352878
33.1029
31.1599
29.2026
27.5737
26.2374
25.1106
24.1259
23.2365
22.4109
21.628
20.8731
20.1361
19.41
18.6903
17.9743
17.2609
16.5496
15.8407
15.134
14.4296
13.7269
13.0254
12.3244
11.6234
10.922
10.2201
9.51756
8.81438
8.11062
7.40639
6.70178
5.99686
5.29171
4.58639
3.88095
3.17543
2.46984
1.76422
1.05856
0.352876
32.4015
30.9667
29.2266
27.6486
26.3057
25.1597
24.1576
23.2555
22.4216
21.6335
20.8756
20.1368
19.4098
18.6896
17.9733
17.2596
16.5482
15.8392
15.1326
14.4284
13.7259
13.0247
12.324
11.6232
10.922
10.2202
9.51768
8.81452
8.11077
7.40653
6.70189
5.99695
5.29179
4.58645
3.881
3.17546
2.46987
1.76424
1.05857
0.35288
30.4786
29.8152
28.6733
27.4259
26.2397
25.1597
24.181
23.2838
22.4477
21.6552
20.8927
20.15
19.4197
18.6967
17.9781
17.2625
16.5496
15.8395
15.1324
14.428
13.7257
13.0246
12.3241
11.6234
10.9223
10.2205
9.51794
8.81474
8.11094
7.40666
6.70199
5.99702
5.29184
4.58649
3.88102
3.17548
2.46988
1.76425
1.05858
0.352888
30.6105
29.8438
28.6282
27.3634
26.1867
25.1228
24.1584
23.2716
22.4421
21.6535
20.8929
20.1511
19.4211
18.6983
17.9799
17.2647
16.552
15.8421
15.1349
14.4301
13.7273
13.0257
12.3247
11.6236
10.9222
10.2203
9.51766
8.81444
8.11066
7.40641
6.70178
5.99685
5.2917
4.58638
3.88094
3.17542
2.46983
1.76421
1.05855
0.352878
31.1283
30.1822
28.7835
27.4089
26.1809
25.0986
24.1312
23.2477
22.4231
21.6392
20.8827
20.144
19.4164
18.6954
17.9782
17.2637
16.5517
15.8421
15.1352
14.4306
13.7278
13.0262
12.3251
11.6239
10.9224
10.2204
9.51771
8.81444
8.11063
7.40636
6.70172
5.9968
5.29165
4.58634
3.88091
3.17539
2.46981
1.76419
1.05854
0.352877
31.8608
30.7015
29.07
27.5368
26.2202
25.0949
24.1101
23.2221
22.399
21.6189
20.8668
20.1323
19.4081
18.6895
17.9739
17.2605
16.5491
15.84
15.1337
14.4297
13.7275
13.0263
12.3254
11.6244
10.9229
10.2208
9.51803
8.81468
8.11081
7.40649
6.70181
5.99685
5.29168
4.58635
3.88091
3.17539
2.46981
1.76419
1.05854
0.352878
32.6589
31.2923
29.4217
27.7147
26.2931
25.1113
24.0994
23.2007
22.3755
21.5975
20.8493
20.119
19.3984
18.6822
17.9682
17.2557
16.5449
15.8364
15.1308
14.4278
13.7265
13.0261
12.3257
11.6249
10.9235
10.2214
9.51854
8.81511
8.11114
7.40674
6.70199
5.99698
5.29177
4.58641
3.88095
3.17541
2.46982
1.76419
1.05854
0.352877
33.4222
31.8738
29.7839
27.9108
26.3838
25.1418
24.0985
23.1855
22.3556
21.5781
20.8328
20.1062
19.389
18.675
17.9622
17.2503
16.5397
15.8316
15.127
14.4253
13.7253
13.0257
12.3259
11.6255
10.9242
10.2221
9.51919
8.81565
8.11157
7.40707
6.70224
5.99716
5.29189
4.5865
3.88101
3.17545
2.46984
1.76421
1.05855
0.352875
34.0868
32.3902
30.1152
28.0978
26.4763
25.1782
24.1043
23.1761
22.3403
21.562
20.8187
20.0953
19.3809
18.6685
17.9565
17.2449
16.5344
15.8265
15.123
14.4228
13.7241
13.0255
12.3263
11.6261
10.925
10.2228
9.51987
8.81623
8.11203
7.40742
6.7025
5.99735
5.29203
4.58659
3.88107
3.17549
2.46987
1.76422
1.05855
0.352872
34.6128
32.8042
30.3861
28.255
26.5574
25.213
24.1128
23.1711
22.3294
21.5498
20.8077
20.0867
19.3747
18.6633
17.9517
17.2403
16.5298
15.8219
15.1194
14.4206
13.7231
13.0253
12.3267
11.6268
10.9257
10.2236
9.52051
8.81676
8.11246
7.40775
6.70275
5.99753
5.29216
4.58668
3.88113
3.17553
2.46989
1.76423
1.05856
0.352869
34.9751
33.0918
30.5767
28.3676
26.617
25.2397
24.1206
23.1689
22.3226
21.5417
20.8003
20.0808
19.3703
18.6595
17.9482
17.2369
16.5264
15.8186
15.1168
14.419
13.7224
13.0253
12.327
11.6273
10.9263
10.2241
9.521
8.81717
8.11278
7.408
6.70294
5.99767
5.29226
4.58675
3.88118
3.17556
2.46991
1.76424
1.05856
0.352866
35.1596
33.2389
30.6749
28.4261
26.6484
25.2542
24.1251
23.1681
22.3193
21.5377
20.7965
20.0778
19.368
18.6576
17.9464
17.2351
16.5246
15.8169
15.1155
14.4182
13.722
13.0253
12.3272
11.6276
10.9266
10.2244
9.52127
8.81739
8.11296
7.40814
6.70304
5.99774
5.29231
4.58679
3.8812
3.17558
2.46992
1.76425
1.05856
0.352864
35.1596
33.2389
30.6749
28.4261
26.6484
25.2542
24.1251
23.1681
22.3193
21.5376
20.7965
20.0778
19.368
18.6576
17.9464
17.2351
16.5246
15.8169
15.1155
14.4182
13.722
13.0253
12.3272
11.6276
10.9266
10.2244
9.52127
8.81739
8.11296
7.40814
6.70304
5.99774
5.29231
4.58679
3.8812
3.17558
2.46992
1.76425
1.05856
0.352864
34.9752
33.0919
30.5767
28.3676
26.617
25.2397
24.1206
23.1689
22.3226
21.5417
20.8002
20.0808
19.3703
18.6595
17.9482
17.2369
16.5264
15.8186
15.1168
14.419
13.7224
13.0253
12.327
11.6273
10.9263
10.2241
9.521
8.81717
8.11279
7.40801
6.70294
5.99767
5.29226
4.58675
3.88118
3.17556
2.46991
1.76424
1.05856
0.352866
34.6128
32.8042
30.3861
28.255
26.5574
25.2129
24.1128
23.1711
22.3294
21.5497
20.8077
20.0867
19.3747
18.6633
17.9517
17.2403
16.5297
15.8219
15.1194
14.4206
13.723
13.0253
12.3267
11.6268
10.9257
10.2236
9.52052
8.81676
8.11246
7.40776
6.70275
5.99753
5.29216
4.58668
3.88113
3.17553
2.46989
1.76423
1.05856
0.352869
34.0869
32.3902
30.1152
28.0978
26.4763
25.1782
24.1042
23.1761
22.3402
21.5619
20.8186
20.0952
19.3809
18.6685
17.9564
17.2449
16.5344
15.8265
15.123
14.4228
13.724
13.0255
12.3263
11.6261
10.925
10.2228
9.51988
8.81623
8.11204
7.40743
6.70251
5.99735
5.29203
4.58659
3.88107
3.17549
2.46987
1.76422
1.05855
0.352872
33.4222
31.8738
29.7839
27.9108
26.3837
25.1417
24.0985
23.1854
22.3556
21.578
20.8327
20.1061
19.3889
18.6749
17.9621
17.2502
16.5397
15.8316
15.127
14.4253
13.7253
13.0257
12.3259
11.6255
10.9242
10.2221
9.51919
8.81566
8.11158
7.40707
6.70224
5.99716
5.2919
4.5865
3.88101
3.17545
2.46984
1.76421
1.05855
0.352875
32.6589
31.2923
29.4217
27.7147
26.293
25.1113
24.0994
23.2006
22.3754
21.5975
20.8492
20.1189
19.3983
18.6822
17.9682
17.2556
16.5448
15.8363
15.1308
14.4278
13.7265
13.0261
12.3257
11.6249
10.9235
10.2214
9.51855
8.81512
8.11115
7.40674
6.702
5.99698
5.29177
4.58641
3.88095
3.17541
2.46982
1.76419
1.05854
0.352877
31.8607
30.7014
29.0699
27.5367
26.2201
25.0948
24.1101
23.222
22.3989
21.6188
20.8668
20.1322
19.408
18.6894
17.9738
17.2604
16.549
15.84
15.1336
14.4297
13.7275
13.0263
12.3254
11.6244
10.9229
10.2208
9.51804
8.81469
8.11081
7.40649
6.70181
5.99685
5.29168
4.58636
3.88091
3.17539
2.46981
1.76419
1.05854
0.352877
31.1281
30.182
28.7833
27.4087
26.1807
25.0985
24.1311
23.2476
22.423
21.6391
20.8826
20.1439
19.4163
18.6953
17.9781
17.2637
16.5516
15.8421
15.1351
14.4306
13.7278
13.0262
12.3251
11.624
10.9224
10.2204
9.51772
8.81445
8.11063
7.40637
6.70173
5.9968
5.29165
4.58634
3.88091
3.17539
2.46981
1.76419
1.05854
0.352877
30.6102
29.8435
28.6279
27.3632
26.1865
25.1227
24.1583
23.2715
22.4421
21.6534
20.8929
20.151
19.421
18.6982
17.9799
17.2646
16.552
15.8421
15.1348
14.4301
13.7273
13.0257
12.3247
11.6236
10.9222
10.2203
9.51767
8.81444
8.11066
7.40641
6.70178
5.99685
5.2917
4.58638
3.88094
3.17542
2.46983
1.76421
1.05855
0.352878
30.4782
29.8148
28.673
27.4257
26.2396
25.1596
24.1809
23.2838
22.4476
21.6551
20.8926
20.1499
19.4196
18.6966
17.978
17.2624
16.5495
15.8395
15.1324
14.428
13.7257
13.0246
12.3241
11.6234
10.9223
10.2205
9.51794
8.81474
8.11095
7.40667
6.702
5.99703
5.29184
4.58649
3.88102
3.17548
2.46988
1.76424
1.05858
0.352888
29.0557
28.7014
27.9546
27.0141
26.0245
25.0581
24.1406
23.2745
22.4529
21.6663
20.9055
20.1624
19.4305
18.7054
17.9843
17.2663
16.5514
15.8399
15.132
14.4275
13.7254
13.0246
12.3244
11.6239
10.9229
10.221
9.51847
8.81519
8.1113
7.40694
6.7022
5.99717
5.29194
4.58656
3.88107
3.17551
2.4699
1.76426
1.05859
0.352895
29.0175
28.6653
27.8978
26.9547
25.9754
25.0232
24.1186
23.2621
22.4469
21.6641
20.9051
20.1628
19.4314
18.7066
17.9861
17.2688
16.5545
15.8433
15.1354
14.4304
13.7276
13.0261
12.3251
11.6241
10.9227
10.2207
9.51806
8.81476
8.1109
7.40659
6.7019
5.99694
5.29175
4.58641
3.88096
3.17543
2.46984
1.76421
1.05856
0.35288
29.1647
28.8023
27.9745
26.9813
25.9734
25.0089
24.1012
23.2461
22.4338
21.654
20.8978
20.1578
19.4281
18.7046
17.9851
17.2685
16.5548
15.844
15.1363
14.4314
13.7286
13.027
12.3258
11.6246
10.923
10.2208
9.51804
8.81467
8.11079
7.40646
6.70179
5.99683
5.29167