# vtk DataFile Version 2.0
I need something to put here
ASCII

DATASET STRUCTURED_GRID
DIMENSIONS 41 21 21
POINTS 18081 float
0.000000 0.000000 0.000000
0.100000 0.000000 0.000000
0.200000 0.000000 0.000000
0.300000 0.000000 0.000000
0.400000 0.000000 0.000000
0.500000 0.000000 0.000000
0.600000 0.000000 0.000000
0.700000 0.000000 0.000000
0.800000 0.000000 0.000000
0.900000 0.000000 0.000000
1.000000 0.000000 0.000000
1.100000 0.000000 0.000000
1.200000 0.000000 0.000000
1.300000 0.000000 0.000000
1.400000 0.000000 0.000000
1.500000 0.000000 0.000000
1.600000 0.000000 0.000000
1.700000 0.000000 0.000000
1.800000 0.000000 0.000000
1.900000 0.000000 0.000000
2.000000 0.000000 0.000000
2.100000 0.000000 0.000000
2.200000 0.000000 0.000000
2.300000 0.000000 0.000000
2.400000 0.000000 0.000000
2.500000 0.000000 0.000000
2.600000 0.000000 0.000000
2.700000 0.000000 0.000000
2.800000 0.000000 0.000000
2.900000 0.000000 0.000000
3.000000 0.000000 0.000000
3.100000 0.000000 0.000000
3.200000 0.000000 0.000000
3.300000 0.000000 0.000000
3.400000 0.000000 0.000000
3.500000 0.000000 0.000000
3.600000 0.000000 0.000000
3.700000 0.000000 0.000000
3.800000 0.000000 0.000000
3.900000 0.000000 0.000000
4.000000 0.000000 0.000000
0.000000 0.100000 0.000000
0.100000 0.100000 0.000000
0.200000 0.100000 0.000000
0.300000 0.100000 0.000000
0.400000 0.100000 0.000000
0.500000 0.100000 0.000000
0.600000 0.100000 0.000000
0.700000 0.100000 0.000000
0.800000 0.100000 0.000000
0.900000 0.100000 0.000000
1.000000 0.100000 0.000000
1.100000 0.100000 0.000000
1.200000 0.100000 0.000000
1.300000 0.100000 0.000000
1.400000 0.100000 0.000000
1.500000 0.100000 0.000000
1.600000 0.100000 0.000000
1.700000 0.100000 0.000000
1.800000 0.100000 0.000000
1.900000 0.100000 0.000000
2.000000 0.100000 0.000000
2.100000 0.100000 0.000000
2.200000 0.100000 0.000000
2.300000 0.100000 0.000000
2.400000 0.100000 0.000000
2.500000 0.100000 0.000000
2.600000 0.100000 0.000000
2.700000 0.100000 0.000000
2.800000 0.100000 0.000000
2.900000 0.100000 0.000000
3.000000 0.100000 0.000000
3.100000 0.100000 0.000000
3.200000 0.100000 0.000000
3.300000 0.100000 0.000000
3.400000 0.100000 0.000000
3.500000 0.100000 0.000000
3.600000 0.100000 0.000000
3.700000 0.100000 0.000000
3.800000 0.100000 0.000000
3.900000 0.100000 0.000000
4.000000 0.100000 0.000000
0.000000 0.200000 0.000000
0.100000 0.200000 0.000000
0.200000 0.200000 0.000000
0.300000 0.200000 0.000000
0.400000 0.200000 0.000000
0.500000 0.200000 0.000000
0.600000 0.200000 0.000000
0.700000 0.200000 0.000000
0.800000 0.200000 0.000000
0.900000 0.200000 0.000000
1.000000 0.200000 0.000000
1.100000 0.200000 0.000000
1.200000 0.200000 0.000000
1.300000 0.200000 0.000000
1.400000 0.200000 0.000000
1.500000 0.200000 0.000000
1.600000 0.200000 0.000000
1.700000 0.200000 0.000000
1.800000 0.200000 0.000000
1.900000 0.200000 0.000000
2.000000 0.200000 0.000000
2.100000 0.200000 0.000000
2.200000 0.200000 0.000000
2.300000 0.200000 0.000000
2.400000 0.200000 0.000000
2.500000 0.200000 0.000000
2.600000 0.200000 0.000000
2.700000 0.200000 0.000000
2.800000 0.200000 0.000000
2.900000 0.200000 0.000000
3.000000 0.200000 0.000000
3.100000 0.200000 0.000000
3.200000 0.200000 0.000000
3.300000 0.200000 0.000000
3.400000 0.200000 0.000000
3.500000 0.200000 0.000000
3.600000 0.200000 0.000000
3.700000 0.200000 0.000000
3.800000 0.200000 0.000000
3.900000 0.200000 0.000000
4.000000 0.200000 0.000000
0.000000 0.300000 0.000000
0.100000 0.300000 0.000000
0.200000 0.300000 0.000000
0.300000 0.300000 0.000000
0.400000 0.300000 0.000000
0.500000 0.300000 0.000000
0.600000 0.300000 0.000000
0.700000 0.300000 0.000000
0.800000 0.300000 0.000000
0.900000 0.300000 0.000000
1.000000 0.300000 0.000000
1.100000 0.300000 0.000000
1.200000 0.300000 0.000000
1.300000 0.300000 0.000000
1.400000 0.300000 0.000000
1.500000 0.300000 0.000000
1.600000 0.300000 0.000000
1.700000 0.300000 0.000000
1.800000 0.300000 0.000000
1.900000 0.300000 0.000000
2.000000 0.300000 0.000000
2.100000 0.300000 0.000000
2.200000 0.300000 0.000000
2.300000 0.300000 0.000000
2.400000 0.300000 0.000000
2.500000 0.300000 0.000000
2.600000 0.300000 0.000000
2.700000 0.300000 0.000000
2.800000 0.300000 0.000000
2.900000 0.300000 0.000000
3.000000 0.300000 0.000000
3.100000 0.300000 0.000000
3.200000 0.300000 0.000000
3.300000 0.300000 0.000000
3.400000 0.300000 0.000000
3.500000 0.300000 0.000000
3.600000 0.300000 0.000000
3.700000 0.300000 0.000000
3.800000 0.300000 0.000000
3.900000 0.300000 0.000000
4.000000 0.300000 0.000000
0.000000 0.400000 0.000000
0.100000 0.400000 0.000000
0.200000 0.400000 0.000000
0.300000 0.400000 0.000000
0.400000 0.400000 0.000000
0.500000 0.400000 0.000000
0.600000 0.400000 0.000000
0.700000 0.400000 0.000000
0.800000 0.400000 0.000000
0.900000 0.400000 0.000000
1.000000 0.400000 0.000000
1.100000 0.400000 0.000000
1.200000 0.400000 0.000000
1.300000 0.400000 0.000000
1.400000 0.400000 0.000000
1.500000 0.400000 0.000000
1.600000 0.400000 0.000000
1.700000 0.400000 0.000000
1.800000 0.400000 0.000000
1.900000 0.400000 0.000000
2.000000 0.400000 0.000000
2.100000 0.400000 0.000000
2.200000 0.400000 0.000000
2.300000 0.400000 0.000000
2.400000 0.400000 0.000000
2.500000 0.400000 0.000000
2.600000 0.400000 0.000000
2.700000 0.400000 0.000000
2.800000 0.400000 0.000000
2.900000 0.400000 0.000000
3.000000 0.400000 0.000000
3.100000 0.400000 0.000000
3.200000 0.400000 0.000000
3.300000 0.400000 0.000000
3.400000 0.400000 0.000000
3.500000 0.400000 0.000000
3.600000 0.400000 0.000000
3.700000 0.400000 0.000000
3.800000 0.400000 0.000000
3.900000 0.400000 0.000000
4.000000 0.400000 0.000000
0.000000 0.500000 0.000000
0.100000 0.500000 0.000000
0.200000 0.500000 0.000000
0.300000 0.500000 0.000000
0.400000 0.500000 0.000000
0.500000 0.500000 0.000000
0.600000 0.500000 0.000000
0.700000 0.500000 0.000000
0.800000 0.500000 0.000000
0.900000 0.500000 0.000000
1.000000 0.500000 0.000000
1.100000 0.500000 0.000000
1.200000 0.500000 0.000000
1.300000 0.500000 0.000000
1.400000 0.500000 0.000000
1.500000 0.500000 0.000000
1.600000 0.500000 0.000000
1.700000 0.500000 0.000000
1.800000 0.500000 0.000000
1.900000 0.500000 0.000000
2.000000 0.500000 0.000000
2.100000 0.500000 0.000000
2.200000 0.500000 0.000000
2.300000 0.500000 0.000000
2.400000 0.500000 0.000000
2.500000 0.500000 0.000000
2.600000 0.500000 0.000000
2.700000 0.500000 0.000000
2.800000 0.500000 0.000000
2.900000 0.500000 0.000000
3.000000 0.500000 0.000000
3.100000 0.500000 0.000000
3.200000 0.500000 0.000000
3.300000 0.500000 0.000000
3.400000 0.500000 0.000000
3.500000 0.500000 0.000000
3.600000 0.500000 0.000000
3.700000 0.500000 0.000000
3.800000 0.500000 0.000000
3.900000 0.500000 0.000000
4.000000 0.500000 0.000000
0.000000 0.600000 0.000000
0.100000 0.600000 0.000000
0.200000 0.600000 0.000000
0.300000 0.600000 0.000000
0.400000 0.600000 0.000000
0.500000 0.600000 0.000000
0.600000 0.600000 0.000000
0.700000 0.600000 0.000000
0.800000 0.600000 0.000000
0.900000 0.600000 0.000000
1.000000 0.600000 0.000000
1.100000 0.600000 0.000000
1.200000 0.600000 0.000000
1.300000 0.600000 0.000000
1.400000 0.600000 0.000000
1.500000 0.600000 0.000000
1.600000 0.600000 0.000000
1.700000 0.600000 0.000000
1.800000 0.600000 0.000000
1.900000 0.600000 0.000000
2.000000 0.600000 0.000000
2.100000 0.600000 0.000000
2.200000 0.600000 0.000000
2.300000 0.600000 0.000000
2.400000 0.600000 0.000000
2.500000 0.600000 0.000000
2.600000 0.600000 0.000000
2.700000 0.600000 0.000000
2.800000 0.600000 0.000000
2.900000 0.600000 0.000000
3.000000 0.600000 0.000000
3.100000 0.600000 0.000000
3.200000 0.600000 0.000000
3.300000 0.600000 0.000000
3.400000 0.600000 0.000000
3.500000 0.600000 0.000000
3.600000 0.600000 0.000000
3.700000 0.600000 0.000000
3.800000 0.600000 0.000000
3.900000 0.600000 0.000000
4.000000 0.600000 0.000000
0.000000 0.700000 0.000000
0.100000 0.700000 0.000000
0.200000 0.700000 0.000000
0.300000 0.700000 0.000000
0.400000 0.700000 0.000000
0.500000 0.700000 0.000000
0.600000 0.700000 0.000000
0.700000 0.700000 0.000000
0.800000 0.700000 0.000000
0.900000 0.700000 0.000000
1.000000 0.700000 0.000000
1.100000 0.700000 0.000000
1.200000 0.700000 0.000000
1.300000 0.700000 0.000000
1.400000 0.700000 0.000000
1.500000 0.700000 0.000000
1.600000 0.700000 0.000000
1.700000 0.700000 0.000000
1.800000 0.700000 0.000000
1.900000 0.700000 0.000000
2.000000 0.700000 0.000000
2.100000 0.700000 0.000000
2.200000 0.700000 0.000000
2.300000 0.700000 0.000000
2.400000 0.700000 0.000000
2.500000 0.700000 0.000000
2.600000 0.700000 0.000000
2.700000 0.700000 0.000000
2.800000 0.700000 0.000000
2.900000 0.700000 0.000000
3.000000 0.700000 0.000000
3.100000 0.700000 0.000000
3.200000 0.700000 0.000000
3.300000 0.700000 0.000000
3.400000 0.700000 0.000000
3.500000 0.700000 0.000000
3.600000 0.700000 0.000000
3.700000 0.700000 0.000000
3.800000 0.700000 0.000000
3.900000 0.700000 0.000000
4.000000 0.700000 0.000000
0.000000 0.800000 0.000000
0.100000 0.800000 0.000000
0.200000 0.800000 0.000000
0.300000 0.800000 0.000000
0.400000 0.800000 0.000000
0.500000 0.800000 0.000000
0.600000 0.800000 0.000000
0.700000 0.800000 0.000000
0.800000 0.800000 0.000000
0.900000 0.800000 0.000000
1.000000 0.800000 0.000000
1.100000 0.800000 0.000000
1.200000 0.800000 0.000000
1.300000 0.800000 0.000000
1.400000 0.800000 0.000000
1.500000 0.800000 0.000000
1.600000 0.800000 0.000000
1.700000 0.800000 0.000000
1.800000 0.800000 0.000000
1.900000 0.800000 0.000000
2.000000 0.800000 0.000000
2.100000 0.800000 0.000000
2.200000 0.800000 0.000000
2.300000 0.800000 0.000000
2.400000 0.800000 0.000000
2.500000 0.800000 0.000000
2.600000 0.800000 0.000000
2.700000 0.800000 0.000000
2.800000 0.800000 0.000000
2.900000 0.800000 0.000000
3.000000 0.800000 0.000000
3.100000 0.800000 0.000000
3.200000 0.800000 0.000000
3.300000 0.800000 0.000000
3.400000 0.800000 0.000000
3.500000 0.800000 0.000000
3.600000 0.800000 0.000000
[...]
CELL_DATA 16000
SCALARS pressure float 1
LOOKUP_TABLE default
39.8726
36.7525
34.4156
32.6651
31.2829
30.1216
29.0888
28.1245
27.1872
26.247
25.2818
24.2776
23.2286
22.1379
21.0162
19.8799
18.7477
17.638
16.5661
15.5424
14.5715
13.6528
12.7817
11.9516
11.1547
10.3838
9.63253
8.89549
8.16856
7.44859
6.73329
6.02104
5.3107
4.60153
3.89302
3.18489
2.47694
1.76908
1.0613
0.353657
42.222
37.1116
34.2982
32.4833
31.1325
30.0139
29.0159
28.0767
27.157
26.2287
25.2715
24.2725
23.2265
22.1371
21.0157
19.8792
18.7466
17.6365
16.5644
15.5408
14.5702
13.652
12.7815
11.9517
11.1551
10.3844
9.63316
8.89611
8.16912
7.44908
6.7337
6.02136
5.31095
4.60172
3.89317
3.185
2.47701
1.76913
1.06133
0.353638
45.5803
38.0902
34.4589
32.3971
30.9966
29.8909
28.9216
28.012
27.1179
26.21
25.2677
24.2777
23.235
22.1438
21.0171
19.8735
18.7336
17.6175
16.5415
15.5167
14.5472
13.6317
12.7646
11.9385
11.1452
10.3773
9.6282
8.89279
8.16698
7.44775
6.73292
6.02094
5.31075
4.60165
3.89317
3.18503
2.47705
1.76915
1.06132
0.353601
49.0843
39.3396
34.8243
32.4356
30.9293
29.8036
28.8467
27.9602
27.0909
26.2053
25.28
24.2996
23.2579
22.1598
21.0209
19.8626
18.7084
17.5804
16.497
15.4698
14.5025
13.5923
12.7319
11.9127
11.1257
10.3631
9.61819
8.88594
8.16244
7.44483
6.73111
6.01987
5.31015
4.60135
3.89304
3.18499
2.47706
1.76916
1.06131
0.353572
52.3637
40.6315
35.287
32.561
30.926
29.7611
28.8037
27.9331
27.0858
26.222
25.3139
24.3419
23.2976
22.1865
21.0278
19.847
18.6713
17.5258
16.4317
15.4015
14.4378
13.5355
12.6851
11.8759
11.098
10.3428
9.60391
8.87614
8.15589
7.44059
6.72844
6.01825
5.30922
4.60085
3.8928
3.1849
2.47703
1.76917
1.06131
0.35356
55.2399
41.8313
35.7642
32.7288
30.9659
29.7551
28.7904
27.9311
27.103
26.2599
25.3682
24.4033
23.3528
22.2231
21.0379
19.8282
18.625
17.4575
16.3501
15.3167
14.358
13.466
12.6281
11.8313
11.0645
10.3185
9.58677
8.86439
8.14804
7.43548
6.72522
6.01629
5.30808
4.60022
3.89249
3.18477
2.477
1.76917
1.06132
0.353565
57.6167
42.8586
36.199
32.9023
31.0266
29.7723
28.7984
27.9474
27.1363
26.3122
25.4359
24.4766
23.4176
22.2656
21.0502
19.8082
18.5748
17.3829
16.2612
15.2247
14.272
13.3916
12.5674
11.7842
11.0292
10.293
9.56884
8.8521
8.13984
7.43015
6.72186
6.01423
5.30688
4.59956
3.89215
3.18462
2.47695
1.76917
1.06134
0.353584
59.4377
43.6638
36.5532
33.0544
31.0891
29.7991
28.8169
27.9725
27.1755
26.3678
25.5049
24.5498
23.4817
22.3075
21.0628
19.7898
18.5276
17.3125
16.1774
15.1382
14.1917
13.3225
12.5114
11.7408
10.9969
10.2697
9.55249
8.84093
8.1324
7.42532
6.7188
6.01237
5.30578
4.59895
3.89184
3.18449
2.47691
1.76918
1.06136
0.353608
60.6682
44.2158
36.802
33.1658
31.1389
29.824
28.8359
27.9962
27.2096
26.4142
25.5612
24.609
23.5333
22.3412
21.0731
19.7758
18.491
17.2578
16.1122
15.0711
14.1295
13.2691
12.4683
11.7076
10.9722
10.2519
9.54005
8.83245
8.12675
7.42165
6.71649
6.01096
5.30496
4.59849
3.89161
3.18438
2.47688
1.76918
1.06138
0.35363
61.288
44.4961
36.93
33.2245
31.1663
29.8386
28.8476
28.0104
27.2293
26.4405
25.5928
24.6421
23.5621
22.3601
21.0791
19.7683
18.4712
17.228
16.0767
15.0346
14.0957
13.2402
12.4449
11.6896
10.9589
10.2424
9.53337
8.8279
8.12373
7.4197
6.71526
6.01021
5.30452
4.59825
3.89149
3.18433
2.47687
1.76918
1.06139
0.353642
61.2881
44.4961
36.93
33.2245
31.1663
29.8386
28.8476
28.0104
27.2293
26.4406
25.5929
24.6423
23.5623
22.3604
21.0794
19.7686
18.4715
17.2283
16.077
15.0349
14.0959
13.2404
12.4451
11.6898
10.959
10.2425
9.53347
8.82797
8.12379
7.41974
6.71529
6.01023
5.30453
4.59826
3.89149
3.18433
2.47687
1.76918
1.06139
0.353641
60.6682
44.2159
36.8021
33.1658
31.139
29.824
28.836
27.9964
27.2098
26.4145
25.5616
24.6095
23.534
22.342
21.074
19.7766
18.4918
17.2586
16.113
15.0719
14.1302
13.2697
12.4688
11.708
10.9726
10.2523
9.54032
8.83266
8.12692
7.42178
6.71658
6.01103
5.305
4.59852
3.89163
3.18439
2.47689
1.76918
1.06138
0.353627
59.4378
43.6639
36.5533
33.0544
31.0892
29.7992
28.8171
27.9727
27.1758
26.3683
25.5056
24.5507
23.4828
22.3088
21.0641
19.7911
18.5288
17.3137
16.1786
15.1394
14.1928
13.3234
12.5122
11.7415
10.9975
10.2702
9.55291
8.84127
8.13266
7.42552
6.71895
6.01248
5.30586
4.599
3.89188
3.1845
2.47692
1.76917
1.06136
0.353603
57.6169
42.8588
36.1991
32.9025
31.0267
29.7724
28.7986
27.9477
27.1368
26.3129
25.4369
24.4778
23.4191
22.2673
21.052
19.8098
18.5763
17.3844
16.2627
15.226
14.2733
13.3928
12.5685
11.7851
11.03
10.2937
9.56938
8.85254
8.14019
7.43042
6.72205
6.01438
5.30698
4.59962
3.89219
3.18464
2.47696
1.76917
1.06133
0.353576
55.2401
41.8314
35.7643
32.729
30.966
29.7553
28.7907
27.9315
27.1037
26.2607
25.3694
24.4048
23.3546
22.225
21.0399
19.8301
18.6268
17.4592
16.3518
15.3182
14.3595
13.4673
12.6293
11.8324
11.0654
10.3193
9.5874
8.86489
8.14844
7.43579
6.72545
6.01645
5.30819
4.60029
3.89253
3.18479
2.477
1.76916
1.06131
0.353555
52.3639
40.6317
35.2872
32.5612
30.9262
29.7613
28.804
27.9337
27.0865
26.223
25.3152
24.3435
23.2995
22.1886
21.0299
19.8491
18.6732
17.5276
16.4334
15.4031
14.4393
13.5369
12.6864
11.877
11.0989
10.3437
9.60458
8.87668
8.15631
7.44091
6.72868
6.01842
5.30934
4.60092
3.89284
3.18491
2.47703
1.76915
1.06129
0.353548
49.0845
39.3398
34.8244
32.4358
30.9295
29.8039
28.8472
27.9608
27.0917
26.2063
25.2814
24.3013
23.2597
22.1618
21.023
19.8646
18.7103
17.5823
16.4988
15.4715
14.5041
13.5937
12.7332
11.9139
11.1267
10.3639
9.61888
8.88649
8.16286
7.44515
6.73134
6.02003
5.31026
4.60141
3.89307
3.185
2.47705
1.76915
1.06129
0.353558
45.5804
38.0904
34.4591
32.3973
30.9969
29.8912
28.9221
28.0126
27.1187
26.211
25.2691
24.2794
23.2368
22.1458
21.0192
19.8755
18.7356
17.6194
16.5433
15.5183
14.5487
13.6331
12.7659
11.9396
11.1462
10.3781
9.62886
8.89331
8.16738
7.44805
6.73313
6.02108
5.31084
4.6017
3.89319
3.18502
2.47703
1.76913
1.0613
0.353586
42.2221
37.1117
34.2983
32.4835
31.1328
30.0142
29.0163
28.0774
27.1579
26.2298
25.2729
24.2741
23.2283
22.1391
21.0178
19.8812
18.7485
17.6383
16.5661
15.5424
14.5717
13.6534
12.7827
11.9528
11.156
10.3852
9.63377
8.89659
8.16949
7.44935
6.73389
6.02148
5.31102
4.60175
3.89317
3.18498
2.47698
1.7691
1.0613
0.353622
39.8725
36.7526
34.4157
32.6653
31.2832
30.122
29.0893
28.1251
27.1881
26.2481
25.2832
24.2792
23.2305
22.1399
21.0182
19.8818
18.7496
17.6398
16.5677
15.5439
14.5729
13.6541
12.7829
11.9526
11.1556
10.3845
9.63311
8.89594
8.1689
7.44884
6.73346
6.02115
5.31076
4.60155
3.89302
3.18486
2.4769
1.76904
1.06127
0.35364
37.5036
36.0729
34.3337
32.7493
31.3891
30.2104
29.1546
28.171
27.2195
26.2693
25.2973
24.2884
23.236
22.1425
21.0186
19.8805
18.747
17.6364
16.5641
15.5404
14.5699
13.6517
12.7812
11.9515
11.155
10.3843
9.63306
8.89604
8.16907
7.44904
6.73367
6.02135
5.31094
4.60171
3.89317
3.18499
2.47701
1.76913
1.06132
0.353638
38.2011
36.2628
34.3052
32.6682
31.3123
30.1501
29.1088
28.1347
27.1887
26.2414
25.2717
24.2655
23.2172
22.1294
21.0124
19.8818
18.7556
17.6512
16.5834
15.5621
14.5921
13.6729
12.8002
11.9679
11.1685
10.3951
9.64155
8.90251
8.1739
7.45258
6.73621
6.02314
5.3122
4.60257
3.89375
3.18539
2.47728
1.76931
1.06144
0.353671
39.5984
36.9361
34.5361
32.7011
31.2735
30.0943
29.0567
28.0929
27.158
26.2207
25.2588
24.2582
23.213
22.1265
21.0095
19.8782
18.7512
17.6462
16.5782
15.5575
14.5884
13.6705
12.7991
11.9677
11.1691
10.3962
9.64284
8.90383
8.17514
7.45368
6.73715
6.02391
5.31281
4.60305
3.89412
3.18566
2.47748
1.76945
1.06152
0.353668
41.2504
37.8476
34.9367
32.8371
31.2914
30.0682
29.0213
28.0633
27.1398
26.2145
25.2626
24.2679
23.2236
22.1331
21.0091
19.8696
18.7346
17.623
16.5511
15.5294
14.5621
13.6476
12.7805
11.9535
11.1587
10.389
9.63801
8.90079
8.17334
7.45271
6.73671
6.02378
5.31286
4.60318
3.89428
3.18582
2.47761
1.76955
1.06157
0.353669
42.899
38.8233
35.4165
33.04
31.3581
30.0761
29.0104
28.0534
27.1398
26.2268
25.2852
24.2955
23.2487
22.1489
21.0112
19.8566
18.7072
17.584
16.5049
15.4813
14.5166
13.6078
12.7477
11.9278
11.1394
10.375
9.62832
8.89427
8.16912
7.45009
6.73516
6.02294
5.31245
4.60303
3.89427
3.18588
2.47769
1.76962
1.06162
0.353685
44.3997
39.7502
35.9032
33.2699
31.4545
30.1103
29.0218
28.0629
27.1576
26.2562
25.3246
24.3385
23.2863
22.1722
21.0155
19.8405
18.6721
17.5332
16.4447
15.4187
14.4576
13.5561
12.7051
11.8943
11.1142
10.3567
9.61541
8.88547
8.16331
7.44637
6.73288
6.0216
5.31172
4.60268
3.89414
3.18586
2.47773
1.76967
1.06166
0.353716
45.669
40.5559
36.3444
33.4926
31.5597
30.1587
29.0479
28.0861
27.1879
26.2972
25.3746
24.3911
23.3313
22.1999
21.0211
19.8234
18.6336
17.4772
16.3782
15.3498
14.3928
13.4996
12.6586
11.8579
11.0867
10.3367
9.60131
8.8758
8.15687
7.44221
6.73029
6.02005
5.31085
4.60223
3.89394
3.1858
2.47774
1.76971
1.06171
0.353757
46.656
41.1935
36.7034
33.6816
31.6556
30.2084
29.079
28.1145
27.2222
26.3408
25.426
24.4441
23.3763
22.2274
21.0271
19.8075
18.5975
17.4243
16.3153
15.2848
14.332
13.4468
12.6153
11.8239
11.0612
10.3181
9.58819
8.86679
8.15085
7.43831
6.72784
6.01858
5.31
4.60178
3.89373
3.18573
2.47774
1.76974
1.06175
0.3538
47.3292
41.6333
36.9553
33.8179
31.7278
30.2483
29.1058
28.1395
27.2515
26.377
25.4681
24.4871
23.4127
22.2496
21.0321
19.7954
18.5696
17.3832
16.2665
15.2344
14.2849
13.4059
12.5818
11.7978
11.0416
10.3039
9.57812
8.85988
8.14623
7.43531
6.72595
6.01743
5.30934
4.60143
3.89356
3.18567
2.47774
1.76976
1.06178
0.353835
47.67
41.8573
37.0849
33.889
31.7663
30.2703
29.1211
28.1539
27.2684
26.3976
25.4917
24.5112
23.433
22.2621
21.0352
19.789
18.5545
17.3609
16.24
15.207
14.2593
13.3837
12.5637
11.7837
11.031
10.2962
9.57269
8.85616
8.14375
7.4337
6.72494
6.01682
5.30899
4.60124
3.89347
3.18563
2.47773
1.76978
1.0618
0.353854
47.67
41.8574
37.0849
33.8891
31.7664
30.2704
29.1212
28.154
27.2684
26.3977
25.4918
24.5113
23.4332
22.2623
21.0354
19.7893
18.5548
17.3611
16.2402
15.2072
14.2595
13.3839
12.5639
11.7838
11.0311
10.2963
9.57277
8.85622
8.1438
7.43374
6.72497
6.01684
5.309
4.60125
3.89347
3.18564
2.47773
1.76978
1.0618
0.353853
47.3293
41.6334
36.9554
33.8179
31.7279
30.2483
29.1059
28.1396
27.2517
26.3773
25.4684
24.4876
23.4133
22.2503
21.0329
19.7962
18.5703
17.3839
16.2672
15.235
14.2855
13.4064
12.5823
11.7982
11.0419
10.3042
9.57836
8.86007
8.14639
7.43543
6.72604
6.0175
5.30939
4.60146
3.89358
3.18568
2.47774
1.76977
1.06178
0.353831
46.6561
41.1936
36.7035
33.6817
31.6558
30.2085
29.0792
28.1148
27.2226
26.3412
25.4267
24.4449
23.3774
22.2285
21.0283
19.8087
18.5986
17.4253
16.3164
15.2858
14.3329
13.4476
12.616
11.8246
11.0618
10.3186
9.58857
8.8671
8.1511
7.4385
6.72798
6.01868
5.31007
4.60183
3.89376
3.18575
2.47775
1.76974
1.06175
0.353794
45.6692
40.556
36.3446
33.4927
31.5599
30.1589
29.0482
28.0865
27.1884
26.2979
25.3755
24.3922
23.3327
22.2014
21.0227
19.8248
18.635
17.4785
16.3795
15.351
14.394
13.5007
12.6596
11.8587
11.0875
10.3373
9.6018
8.8762
8.15719
7.44246
6.73047
6.02019
5.31094
4.60229
3.89397
3.18582
2.47775
1.76971
1.0617
0.353749
44.3999
39.7504
35.9034
33.27
31.4547
30.1106
29.0222
28.0634
27.1583
26.2571
25.3257
24.3398
23.2879
22.1739
21.0172
19.8422
18.6737
17.5347
16.4461
15.4201
14.4589
13.5573
12.7061
11.8952
11.115
10.3574
9.61599
8.88594
8.16368
7.44665
6.73309
6.02175
5.31182
4.60275
3.89418
3.18588
2.47774
1.76967
1.06165
0.353705
42.8992
38.8235
35.4167
33.0402
31.3583
30.0763
29.0108
28.054
27.1405
26.2277
25.2864
24.297
23.2505
22.1507
21.0131
19.8585
18.709
17.5856
16.5064
15.4828
14.518
13.609
12.7488
11.9288
11.1403
10.3758
9.62895
8.89478
8.16952
7.45039
6.73539
6.0231
5.31255
4.6031
3.89431
3.18589
2.47769
1.76961
1.0616
0.353672
41.2507
37.8477
34.9369
32.8373
31.2917
30.0685
29.0217
28.0639
27.1406
26.2156
25.2639
24.2695
23.2254
22.135
21.0111
19.8715
18.7364
17.6247
16.5527
15.5309
14.5635
13.6489
12.7817
11.9545
11.1596
10.3897
9.63865
8.9013
8.17374
7.45301
6.73693
6.02394
5.31296
4.60324
3.89431
3.18582
2.4776
1.76953
1.06155
0.353654
39.5986
36.9363
34.5363
32.7012
31.2737
30.0946
29.0572
28.0936
27.1589
26.2218
25.2601
24.2598
23.2148
22.1284
21.0114
19.8802
18.7531
17.648
16.5799
15.559
14.5899
13.6718
12.8003
11.9688
11.17
10.397
9.64346
8.90433
8.17553
7.45397
6.73736
6.02405
5.3129
4.6031
3.89413
3.18566
2.47746
1.76942
1.06149
0.353652
38.2011
36.2628
34.3053
32.6683
31.3126
30.1505
29.1092
28.1353
27.1895
26.2426
25.2731
24.2671
23.219
22.1313
21.0144
19.8838
18.7575
17.653
16.585
15.5637
14.5935
13.6741
12.8014
11.9689
11.1694
10.3959
9.64213
8.90297
8.17425
7.45284
6.7364
6.02326
5.31226
4.6026
3.89375
3.18537
2.47725
1.76928
1.06142
0.353654
37.5035
36.0728
34.3337
32.7495
31.3893
30.2108
29.1551
28.1716
27.2204
26.2704
25.2987
24.2901
23.2378
22.1445
21.0206
19.8824
18.7488
17.6382
16.5657
15.5419
14.5712
13.6529
12.7823
11.9524
11.1558
10.3849
9.6336
8.89646
8.16939
7.44927
6.73383
6.02144
5.31099
4.60173
3.89315
3.18496
2.47697
1.76909
1.06129
0.353617
35.581
34.9231
33.7836
32.5315
31.3298
30.2195
29.1901
28.215
27.2652
26.3141
25.3397
24.3264
23.2671
22.1645
21.0301
19.8813
18.7381
17.6199
16.5427
15.5171
14.5472
13.6315
12.7644
11.9382
11.145
10.3771
9.62803
8.89265
8.16688
7.44768
6.73286
6.0209
5.31072
4.60163
3.89316
3.18502
2.47704
1.76915
1.06132
0.353599
35.7068
34.9465
33.7312
32.4583
31.262
30.1629
29.1422
28.1715
27.2225
26.2707
25.2961
24.2852
23.2322
22.1397
21.0184
19.8841
18.755
17.6485
16.5796
15.5583
14.5889
13.6707
12.7992
11.9677
11.1691
10.3962
9.64279
8.90378
8.1751
7.45365
6.73713
6.02389
5.31279
4.60304
3.89411
3.18565
2.47747
1.76944
1.06151
0.353667
36.2198
35.282
33.8832
32.4992
31.2498
30.1304
29.105
28.136
27.1908
26.2433
25.273
24.2662
23.217
22.1284
21.0114
19.8817
18.757
17.6544
16.5885
15.5693
14.6011
13.6833
12.8113
11.9789
11.1789
10.4045
9.64961
8.90925
8.1794
7.45695
6.73962
6.02575
5.31416
4.60403
3.89482
3.18616
2.47783
1.76968
1.06165
0.353685
36.9526
35.8027
34.1714
32.6287
31.291
30.1295
29.0883
28.117
27.1762
26.2352
25.2713
24.2685
23.2198
22.1284
21.0073
19.8736
18.7452
17.6395
16.5722
15.5537
14.5877
13.6728
12.8039
11.9742
11.1763
10.4034
9.64955
8.9098
8.18024
7.45789
6.74054
6.02658
5.31487
4.60462
3.89529
3.18652
2.4781
1.76988
1.06176
0.353707
37.7573
36.4
34.5298
32.8143
31.3735
30.1585
29.0944
28.1178
27.1809
26.2475
25.2908
24.2911
23.2389
22.138
21.0051
19.86
18.721
17.6065
16.5344
15.5157
14.5531
13.6437
12.7809
11.9568
11.1639
10.3949
9.64404
8.90641
8.17832
7.45693
6.74018
6.02656
5.31504
4.60486
3.89555
3.18677
2.4783
1.77003
1.06186
0.353747
38.5326
36.9923
34.9029
33.0228
31.4794
30.2087
29.1195
28.1363
27.203
26.2777
25.3285
24.331
23.2718
22.1547
21.0039
19.8422
18.6878
17.5597
16.4803
15.4612
14.5034
13.6014
12.747
11.9309
11.1448
10.3814
9.63483
8.90036
8.17451
7.45465
6.73892
6.02595
5.31481
4.60485
3.89565
3.18691
2.47845
1.77015
1.06196
0.353805
39.2123
37.5219
35.2476
33.2248
31.5904
30.2688
29.1559
28.1662
27.2365
26.3194
25.378
24.3823
23.3134
22.1752
21.0029
19.8224
18.6504
17.5058
16.4177
15.3985
14.4465
13.5532
12.7083
11.9012
11.1228
10.3657
9.62393
8.89306
8.16979
7.45172
6.73719
6.025
5.31435
4.60468
3.89564
3.18698
2.47855
1.77025
1.06204
0.353873
39.7534
37.9492
35.5317
33.3969
31.6897
30.3267
29.1943
28.1995
27.2732
26.3638
25.4296
24.4352
23.3564
22.1956
21.0019
19.8038
18.6149
17.4535
16.3571
15.3382
14.3919
13.5072
12.6714
11.8728
11.1018
10.3506
9.61345
8.88599
8.16516
7.44881
6.73543
6.024
5.31383
4.60446
3.89558
3.18701
2.47861
1.77033
1.06211
0.353941
40.128
38.2475
35.7329
33.5213
31.7637
30.3719
29.2259
28.2276
27.3041
26.4006
25.4719
24.4785
23.3913
22.2122
21.0014
19.7893
18.5874
17.4129
16.3098
15.291
14.3493
13.4713
12.6427
11.8508
11.0855
10.3389
9.60526
8.88045
8.16153
7.4465
6.73402
6.02319
5.3134
4.60426
3.89551
3.18701
2.47866
1.77038
1.06217
0.353994
40.3192
38.4005
35.8369
33.5864
31.8031
30.3965
29.2435
28.2435
27.3216
26.4214
25.4958
24.5028
23.4108
22.2218
21.0013
19.7815
18.5724
17.3908
16.284
15.2652
14.3261
13.4518
12.6271
11.8388
11.0766
10.3325
9.60083
8.87745
8.15955
7.44525
6.73326
6.02275
5.31316
4.60414
3.89548
3.18702
2.47868
1.77041
1.0622
0.354023
40.3192
38.4006
35.8369
33.5864
31.8031
30.3965
29.2435
28.2436
27.3217
26.4215
25.4959
24.5029
23.411
22.222
21.0016
19.7818
18.5726
17.3911
16.2843
15.2655
14.3264
13.452
12.6272
11.8389
11.0767
10.3326
9.60091
8.87751
8.1596
7.44529
6.73329
6.02277
5.31317
4.60415
3.89548
3.18702
2.47868
1.77041
1.0622
0.354021
40.1281
38.2476
35.733
33.5214
31.7638
30.3719
29.226
28.2277
27.3043
26.4008
25.4723
24.4789
23.3918
22.2129
21.0021
19.7901
18.5881
17.4136
16.3105
15.2916
14.3499
13.4719
12.6431
11.8512
11.0858
10.3392
9.60549
8.88063
8.16167
7.44661
6.73411
6.02325
5.31344
4.60429
3.89553
3.18702
2.47866
1.77038
1.06217
0.353989
39.7536
37.9493
35.5318
33.397
31.6898
30.3269
29.1945
28.1998
27.2735
26.3642
25.4302
24.436
23.3574
22.1968
21.0031
19.8049
18.616
17.4545
16.3581
15.3391
14.3928
13.508
12.6721
11.8734
11.1023
10.3511
9.61381
8.88628
8.16539
7.44899
6.73556
6.0241
5.3139
4.6045
3.89561
3.18702
2.47862
1.77033
1.06211
0.353933
39.2125
37.5221
35.2477
33.225
31.5906
30.269
29.1562
28.1666
27.237
26.3201
25.3789
24.3834
23.3148
22.1767
21.0044
19.8238
18.6516
17.507
16.4189
15.3996
14.4476
13.5542
12.7092
11.9019
11.1235
10.3663
9.62441
8.89345
8.17009
7.45196
6.73736
6.02513
5.31444
4.60474
3.89568
3.187
2.47855
1.77025
1.06203
0.353862
38.5328
36.9925
34.9031
33.0229
31.4797
30.209
29.1198
28.1367
27.2036
26.2785
25.3296
24.3324
23.2734
22.1564
21.0056
19.8438
18.6893
17.5611
16.4816
15.4624
14.5046
13.6026
12.748
11.9318
11.1456
10.3821
9.63538
8.90081
8.17486
7.45492
6.73912
6.02609
5.31491
4.60492
3.89569
3.18693
2.47845
1.77015
1.06195
0.353791
37.7576
36.4002
34.53
32.8145
31.3737
30.1588
29.0948
28.1184
27.1816
26.2485
25.292
24.2926
23.2407
22.1398
21.007
19.8618
18.7227
17.608
16.5358
15.517
14.5544
13.6449
12.782
11.9578
11.1647
10.3957
9.64464
8.90689
8.17869
7.45722
6.74039
6.02672
5.31514
4.60493
3.89558
3.18678
2.4783
1.77002
1.06185
0.353731
36.9528
35.8029
34.1716
32.6289
31.2913
30.1299
29.0887
28.1176
27.177
26.2363
25.2726
24.2701
23.2216
22.1303
21.0093
19.8755
18.7469
17.6411
16.5738
15.5551
14.5891
13.6741
12.8051
11.9752
11.1772
10.4042
9.65016
8.91029
8.18062
7.45818
6.74075
6.02673
5.31496
4.60467
3.89531
3.18653
2.47809
1.76986
1.06175
0.353689
36.2199
35.2821
33.8834
32.4993
31.25
30.1307
29.1055
28.1366
27.1917
26.2444
25.2743
24.2678
23.2188
22.1303
21.0133
19.8836
18.7589
17.6561
16.5901
15.5708
14.6025
13.6845
12.8125
11.9799
11.1797
10.4052
9.6502
8.90973
8.17976
7.45722
6.73981
6.02588
5.31424
4.60407
3.89483
3.18615
2.4778
1.76966
1.06163
0.353666
35.7068
34.9465
33.7312
32.4585
31.2622
30.1632
29.1427
28.1721
27.2234
26.2718
25.2975
24.2869
23.234
22.1417
21.0204
19.8861
18.7568
17.6503
16.5812
15.5598
14.5902
13.6719
12.8003
11.9687
11.1699
10.3969
9.64334
8.90422
8.17543
7.45389
6.73729
6.02399
5.31285
4.60306
3.8941
3.18563
2.47744
1.76941
1.06148
0.353646
35.5808
34.923
33.7835
32.5316
31.33
30.2198
29.1906
28.2157
27.2661
26.3152
25.3411
24.3281
23.269
22.1665
21.0321
19.8833
18.74
17.6216
16.5442
15.5185
14.5485
13.6327
12.7654
11.9391
11.1457
10.3777
9.62852
8.89303
8.16715
7.44787
6.73298
6.02096
5.31075
4.60162
3.89313
3.18497
2.47699
1.7691
1.06127
0.353572
34.1626
33.8151
33.0726
32.13
31.1284
30.1362
29.1739
28.2368
27.3088
26.3701
25.401
24.3862
23.3184
22.2012
21.0485
19.8806
18.7198
17.5874
16.5011
15.4721
14.5037
13.5928
12.7321
11.9127
11.1256
10.3629
9.61801
8.88578
8.1623
7.44472
6.73102
6.0198
5.3101
4.60131
3.89301
3.18497
2.47704
1.76915
1.0613
0.353569
34.117
33.7723
33.0063
32.0565
31.0595
30.0746
29.117
28.1806
27.2503
26.3081
25.3372
24.325
23.2659
22.1636
21.0306
19.8844
18.7445
17.6295
16.5553
15.532
14.5637
13.6485
12.781
11.9537
11.1588
10.389
9.63798
8.90073
8.17329
7.45266
6.73666
6.02375
5.31283
4.60316
3.89426
3.1858
2.4776
1.76954
1.06157
0.353667
34.2576
33.9048
33.0776
32.0753
31.0466
30.046
29.0819
28.1435
27.2132
26.2724
25.3041
24.2954
23.2408
22.1443
21.0189
19.8819
18.751
17.6435
16.5749
15.5554
14.5889
13.6736
12.8044
11.9744
11.1764
10.4035
9.64958
8.9098
8.18022
7.45787
6.74052
6.02657
5.31486
4.60461
3.89528
3.18652
2.47809
1.76987
1.06176