# vtk DataFile Version 2.0
I need something to put here
ASCII

DATASET STRUCTURED_GRID
DIMENSIONS 41 21 21
POINTS 18081 float
0.000000 0.000000 0.000000
0.100000 0.000000 0.000000
0.200000 0.000000 0.000000
0.300000 0.000000 0.000000
0.400000 0.000000 0.000000
0.500000 0.000000 0.000000
0.600000 0.000000 0.000000
0.700000 0.000000 0.000000
0.800000 0.000000 0.000000
0.900000 0.000000 0.000000
1.000000 0.000000 0.000000
1.100000 0.000000 0.000000
1.200000 0.000000 0.000000
1.300000 0.000000 0.000000
1.400000 0.000000 0.000000
1.500000 0.000000 0.000000
1.600000 0.000000 0.000000
1.700000 0.000000 0.000000
1.800000 0.000000 0.000000
1.900000 0.000000 0.000000
2.000000 0.000000 0.000000
2.100000 0.000000 0.000000
2.200000 0.000000 0.000000
2.300000 0.000000 0.000000
2.400000 0.000000 0.000000
2.500000 0.000000 0.000000
2.600000 0.000000 0.000000
2.700000 0.000000 0.000000
2.800000 0.000000 0.000000
2.900000 0.000000 0.000000
3.000000 0.000000 0.000000
3.100000 0.000000 0.000000
3.200000 0.000000 0.000000
3.300000 0.000000 0.000000
3.400000 0.000000 0.000000
3.500000 0.000000 0.000000
3.600000 0.000000 0.000000
3.700000 0.000000 0.000000
3.800000 0.000000 0.000000
3.900000 0.000000 0.000000
4.000000 0.000000 0.000000
0.000000 0.100000 0.000000
0.100000 0.100000 0.000000
0.200000 0.100000 0.000000
0.300000 0.100000 0.000000
0.400000 0.100000 0.000000
0.500000 0.100000 0.000000
0.600000 0.100000 0.000000
0.700000 0.100000 0.000000
0.800000 0.100000 0.000000
0.900000 0.100000 0.000000
1.000000 0.100000 0.000000
1.100000 0.100000 0.000000
1.200000 0.100000 0.000000
1.300000 0.100000 0.000000
1.400000 0.100000 0.000000
1.500000 0.100000 0.000000
1.600000 0.100000 0.000000
1.700000 0.100000 0.000000
1.800000 0.100000 0.000000
1.900000 0.100000 0.000000
2.000000 0.100000 0.000000
2.100000 0.100000 0.000000
2.200000 0.100000 0.000000
2.300000 0.100000 0.000000
2.400000 0.100000 0.000000
2.500000 0.100000 0.000000
2.600000 0.100000 0.000000
2.700000 0.100000 0.000000
2.800000 0.100000 0.000000
2.900000 0.100000 0.000000
3.000000 0.100000 0.000000
3.100000 0.100000 0.000000
3.200000 0.100000 0.000000
3.300000 0.100000 0.000000
3.400000 0.100000 0.000000
3.500000 0.100000 0.000000
3.600000 0.100000 0.000000
3.700000 0.100000 0.000000
3.800000 0.100000 0.000000
3.900000 0.100000 0.000000
4.000000 0.100000 0.000000
0.000000 0.200000 0.000000
0.100000 0.200000 0.000000
0.200000 0.200000 0.000000
0.300000 0.200000 0.000000
0.400000 0.200000 0.000000
0.500000 0.200000 0.000000
0.600000 0.200000 0.000000
0.700000 0.200000 0.000000
0.800000 0.200000 0.000000
0.900000 0.200000 0.000000
1.000000 0.200000 0.000000
1.100000 0.200000 0.000000
1.200000 0.200000 0.000000
1.300000 0.200000 0.000000
1.400000 0.200000 0.000000
1.500000 0.200000 0.000000
1.600000 0.200000 0.000000
1.700000 0.200000 0.000000
1.800000 0.200000 0.000000
1.900000 0.200000 0.000000
2.000000 0.200000 0.000000
2.100000 0.200000 0.000000
2.200000 0.200000 0.000000
2.300000 0.200000 0.000000
2.400000 0.200000 0.000000
2.500000 0.200000 0.000000
2.600000 0.200000 0.000000
2.700000 0.200000 0.000000
2.800000 0.200000 0.000000
2.900000 0.200000 0.000000
3.000000 0.200000 0.000000
3.100000 0.200000 0.000000
3.200000 0.200000 0.000000
3.300000 0.200000 0.000000
3.400000 0.200000 0.000000
3.500000 0.200000 0.000000
3.600000 0.200000 0.000000
3.700000 0.200000 0.000000
3.800000 0.200000 0.000000
3.900000 0.200000 0.000000
4.000000 0.200000 0.000000
0.000000 0.300000 0.000000
0.100000 0.300000 0.000000
0.200000 0.300000 0.000000
0.300000 0.300000 0.000000
0.400000 0.300000 0.000000
0.500000 0.300000 0.000000
0.600000 0.300000 0.000000
0.700000 0.300000 0.000000
0.800000 0.300000 0.000000
0.900000 0.300000 0.000000
1.000000 0.300000 0.000000
1.100000 0.300000 0.000000
1.200000 0.300000 0.000000
1.300000 0.300000 0.000000
1.400000 0.300000 0.000000
1.500000 0.300000 0.000000
1.600000 0.300000 0.000000
1.700000 0.300000 0.000000
1.800000 0.300000 0.000000
1.900000 0.300000 0.000000
2.000000 0.300000 0.000000
2.100000 0.300000 0.000000
2.200000 0.300000 0.000000
2.300000 0.300000 0.000000
2.400000 0.300000 0.000000
2.500000 0.300000 0.000000
2.600000 0.300000 0.000000
2.700000 0.300000 0.000000
2.800000 0.300000 0.000000
2.900000 0.300000 0.000000
3.000000 0.300000 0.000000
3.100000 0.300000 0.000000
3.200000 0.300000 0.000000
3.300000 0.300000 0.000000
3.400000 0.300000 0.000000
3.500000 0.300000 0.000000
3.600000 0.300000 0.000000
3.700000 0.300000 0.000000
3.800000 0.300000 0.000000
3.900000 0.300000 0.000000
4.000000 0.300000 0.000000
0.000000 0.400000 0.000000
0.100000 0.400000 0.000000
0.200000 0.400000 0.000000
0.300000 0.400000 0.000000
0.400000 0.400000 0.000000
0.500000 0.400000 0.000000
0.600000 0.400000 0.000000
0.700000 0.400000 0.000000
0.800000 0.400000 0.000000
0.900000 0.400000 0.000000
1.000000 0.400000 0.000000
1.100000 0.400000 0.000000
1.200000 0.400000 0.000000
1.300000 0.400000 0.000000
1.400000 0.400000 0.000000
1.500000 0.400000 0.000000
1.600000 0.400000 0.000000
1.700000 0.400000 0.000000
1.800000 0.400000 0.000000
1.900000 0.400000 0.000000
2.000000 0.400000 0.000000
2.100000 0.400000 0.000000
2.200000 0.400000 0.000000
2.300000 0.400000 0.000000
2.400000 0.400000 0.000000
2.500000 0.400000 0.000000
2.600000 0.400000 0.000000
2.700000 0.400000 0.000000
2.800000 0.400000 0.000000
2.900000 0.400000 0.000000
3.000000 0.400000 0.000000
3.100000 0.400000 0.000000
3.200000 0.400000 0.000000
3.300000 0.400000 0.000000
3.400000 0.400000 0.000000
3.500000 0.400000 0.000000
3.600000 0.400000 0.000000
3.700000 0.400000 0.000000
3.800000 0.400000 0.000000
3.900000 0.400000 0.000000
4.000000 0.400000 0.000000
0.000000 0.500000 0.000000
0.100000 0.500000 0.000000
0.200000 0.500000 0.000000
0.300000 0.500000 0.000000
0.400000 0.500000 0.000000
0.500000 0.500000 0.000000
0.600000 0.500000 0.000000
0.700000 0.500000 0.000000
0.800000 0.500000 0.000000
0.900000 0.500000 0.000000
1.000000 0.500000 0.000000
1.100000 0.500000 0.000000
1.200000 0.500000 0.000000
1.300000 0.500000 0.000000
1.400000 0.500000 0.000000
1.500000 0.500000 0.000000
1.600000 0.500000 0.000000
1.700000 0.500000 0.000000
1.800000 0.500000 0.000000
1.900000 0.500000 0.000000
2.000000 0.500000 0.000000
2.100000 0.500000 0.000000
2.200000 0.500000 0.000000
2.300000 0.500000 0.000000
2.400000 0.500000 0.000000
2.500000 0.500000 0.000000
2.600000 0.500000 0.000000
2.700000 0.500000 0.000000
2.800000 0.500000 0.000000
2.900000 0.500000 0.000000
3.000000 0.500000 0.000000
3.100000 0.500000 0.000000
3.200000 0.500000 0.000000
3.300000 0.500000 0.000000
3.400000 0.500000 0.000000
3.500000 0.500000 0.000000
3.600000 0.500000 0.000000
3.700000 0.500000 0.000000
3.800000 0.500000 0.000000
3.900000 0.500000 0.000000
4.000000 0.500000 0.000000
0.000000 0.600000 0.000000
0.100000 0.600000 0.000000
0.200000 0.600000 0.000000
0.300000 0.600000 0.000000
0.400000 0.600000 0.000000
0.500000 0.600000 0.000000
0.600000 0.600000 0.000000
0.700000 0.600000 0.000000
0.800000 0.600000 0.000000
0.900000 0.600000 0.000000
1.000000 0.600000 0.000000
1.100000 0.600000 0.000000
1.200000 0.600000 0.000000
1.300000 0.600000 0.000000
1.400000 0.600000 0.000000
1.500000 0.600000 0.000000
1.600000 0.600000 0.000000
1.700000 0.600000 0.000000
1.800000 0.600000 0.000000
1.900000 0.600000 0.000000
2.000000 0.600000 0.000000
2.100000 0.600000 0.000000
2.200000 0.600000 0.000000
2.300000 0.600000 0.000000
2.400000 0.600000 0.000000
2.500000 0.600000 0.000000
2.600000 0.600000 0.000000
2.700000 0.600000 0.000000
2.800000 0.600000 0.000000
2.900000 0.600000 0.000000
3.000000 0.600000 0.000000
3.100000 0.600000 0.000000
3.200000 0.600000 0.000000
3.300000 0.600000 0.000000
3.400000 0.600000 0.000000
3.500000 0.600000 0.000000
3.600000 0.600000 0.000000
3.700000 0.600000 0.000000
3.800000 0.600000 0.000000
3.900000 0.600000 0.000000
4.000000 0.600000 0.000000
0.000000 0.700000 0.000000
0.100000 0.700000 0.000000
0.200000 0.700000 0.000000
0.300000 0.700000 0.000000
0.400000 0.700000 0.000000
0.500000 0.700000 0.000000
0.600000 0.700000 0.000000
0.700000 0.700000 0.000000
0.800000 0.700000 0.000000
0.900000 0.700000 0.000000
1.000000 0.700000 0.000000
1.100000 0.700000 0.000000
1.200000 0.700000 0.000000
1.300000 0.700000 0.000000
1.400000 0.700000 0.000000
1.500000 0.700000 0.000000
1.600000 0.700000 0.000000
1.700000 0.700000 0.000000
1.800000 0.700000 0.000000
1.900000 0.700000 0.000000
2.000000 0.700000 0.000000
2.100000 0.700000 0.000000
2.200000 0.700000 0.000000
2.300000 0.700000 0.000000
2.400000 0.700000 0.000000
2.500000 0.700000 0.000000
2.600000 0.700000 0.000000
2.700000 0.700000 0.000000
2.800000 0.700000 0.000000
2.900000 0.700000 0.000000
3.000000 0.700000 0.000000
3.100000 0.700000 0.000000
3.200000 0.700000 0.000000
3.300000 0.700000 0.000000
3.400000 0.700000 0.000000
3.500000 0.700000 0.000000
3.600000 0.700000 0.000000
3.700000 0.700000 0.000000
3.800000 0.700000 0.000000
3.900000 0.700000 0.000000
4.000000 0.700000 0.000000
0.000000 0.800000 0.000000
0.100000 0.800000 0.000000
0.200000 0.800000 0.000000
0.300000 0.800000 0.000000
0.400000 0.800000 0.000000
0.500000 0.800000 0.000000
0.600000 0.800000 0.000000
0.700000 0.800000 0.000000
0.800000 0.800000 0.000000
0.900000 0.800000 0.000000
1.000000 0.800000 0.000000
1.100000 0.800000 0.000000
1.200000 0.800000 0.000000
1.300000 0.800000 0.000000
1.400000 0.800000 0.000000
1.500000 0.800000 0.000000
1.600000 0.800000 0.000000
1.700000 0.800000 0.000000
1.800000 0.800000 0.000000
1.900000 0.800000 0.000000
2.000000 0.800000 0.000000
2.100000 0.800000 0.000000
2.200000 0.800000 0.000000
2.300000 0.800000 0.000000
2.400000 0.800000 0.000000
2.500000 0.800000 0.000000
2.600000 0.800000 0.000000
2.700000 0.800000 0.000000
2.800000 0.800000 0.000000
2.900000 0.800000 0.000000
3.000000 0.800000 0.000000
3.100000 0.800000 0.000000
3.200000 0.800000 0.000000
3.300000 0.800000 0.000000
3.400000 0.800000 0.000000
3.500000 0.800000 0.000000
3.600000 0.800000 0.000000
[...]
CELL_DATA 16000
SCALARS pressure float 1
LOOKUP_TABLE default
36.3676
33.2454
30.9079
29.1619
27.7919
26.6537
25.6589
24.7522
23.898
23.0719
22.2569
21.4416
20.6192
19.7873
18.947
18.1023
17.2588
16.4224
15.5983
14.7901
13.9995
13.2263
12.4687
11.7245
10.9911
10.2661
9.54722
8.83287
8.12165
7.41257
6.7049
5.99814
5.29193
4.58606
3.88037
3.17478
2.46923
1.7637
1.05818
0.352698
38.7182
33.6049
30.7909
28.9804
27.6419
26.5463
25.5861
24.7044
23.8673
23.0528
22.2455
21.4352
20.6159
19.7858
18.9464
18.102
17.2585
16.4221
15.5979
14.7898
13.9993
13.2262
12.4687
11.7247
10.9913
10.2663
9.54748
8.8331
8.12186
7.41274
6.70504
5.99825
5.29202
4.58613
3.88042
3.17482
2.46926
1.76371
1.05819
0.352693
42.0767
34.5828
30.9499
28.8917
27.5022
26.4179
25.4844
24.6295
23.8153
23.0187
22.2249
21.4239
20.6104
19.7829
18.9439
18.0985
17.2534
16.4152
15.59
14.7816
13.9916
13.2195
12.4633
11.7204
10.9882
10.2641
9.54598
8.83212
8.12124
7.41237
6.70484
5.99815
5.29198
4.58612
3.88043
3.17483
2.46927
1.76373
1.05819
0.352683
45.5783
35.829
31.311
28.9243
27.4267
26.3194
25.3942
24.5576
23.7631
22.9843
22.2049
21.4142
20.6066
19.7809
18.9407
18.0922
17.2433
16.4017
15.5744
14.7655
13.9764
13.2063
12.4525
11.7121
10.982
10.2596
9.54287
8.83003
8.11988
7.41152
6.70432
5.99785
5.29183
4.58605
3.88041
3.17484
2.46928
1.76374
1.05819
0.352677
48.8522
37.115
31.7666
29.0405
27.4112
26.2602
25.3286
24.5011
23.7212
22.9577
22.1916
21.4105
20.6076
19.782
18.9382
18.0841
17.2289
16.382
15.5514
14.7418
13.9544
13.1872
12.437
11.7
10.973
10.2532
9.5384
8.82701
8.1179
7.41026
6.70354
5.9974
5.29157
4.58593
3.88036
3.17483
2.46929
1.76375
1.0582
0.352676
51.7202
38.3064
32.2343
29.1965
27.4355
26.2332
25.2874
24.4625
23.6927
22.9418
22.1872
21.4143
20.6146
19.7869
18.9371
18.075
17.2115
16.3575
15.5228
14.7125
13.9272
13.1639
12.4181
11.6855
10.9622
10.2455
9.53302
8.82337
8.1155
7.40873
6.7026
5.99684
5.29126
4.58577
3.88029
3.1748
2.46929
1.76375
1.05821
0.35268
54.0873
39.324
32.6583
29.3569
27.4791
26.2277
25.2651
24.4395
23.6766
22.9355
22.1907
21.4244
20.6263
19.7948
18.9375
18.066
17.1929
16.331
15.4916
14.6807
13.8979
13.1389
12.398
11.6701
10.9509
10.2373
9.52737
8.81956
8.11299
7.40712
6.70161
5.99625
5.29093
4.58559
3.88021
3.17478
2.46929
1.76376
1.05822
0.352687
55.8987
40.1198
33.0022
29.4964
27.5256
26.2332
25.2553
24.4276
23.6694
22.936
22.1986
21.4374
20.6399
19.8039
18.9388
18.058
17.1757
16.306
15.4623
14.6509
13.8706
13.1156
12.3794
11.6559
10.9404
10.2299
9.52223
8.81608
8.11071
7.40566
6.7007
5.99571
5.29062
4.58543
3.88014
3.17475
2.46929
1.76377
1.05823
0.352697
57.1216
40.6644
33.2429
29.5981
27.5629
26.2415
25.2523
24.4226
23.6674
22.9391
22.2071
21.4492
20.6516
19.8117
18.9403
18.0521
17.1624
16.2867
15.4396
14.6278
13.8494
13.0977
12.3651
11.645
10.9325
10.2243
9.51832
8.81345
8.10898
7.40456
6.70002
5.9953
5.29039
4.58531
3.88008
3.17473
2.46929
1.76378
1.05824
0.352704
57.7373
40.9405
33.3664
29.6514
27.5834
26.2471
25.2519
24.4211
23.6673
22.9417
22.2123
21.4562
20.6584
19.8163
18.9413
18.049
17.1553
16.2762
15.4272
14.6152
13.8379
13.088
12.3574
11.6392
10.9282
10.2212
9.51623
8.81205
8.10807
7.40398
6.69966
5.99509
5.29027
4.58525
3.88005
3.17472
2.46929
1.76379
1.05824
0.352708
57.7374
40.9405
33.3664
29.6514
27.5834
26.2471
25.2519
24.4211
23.6673
22.9417
22.2124
21.4563
20.6585
19.8164
18.9414
18.0491
17.1554
16.2764
15.4274
14.6154
13.838
13.0882
12.3575
11.6392
10.9283
10.2213
9.51627
8.81209
8.1081
7.404
6.69968
5.9951
5.29028
4.58525
3.88005
3.17472
2.46929
1.76379
1.05824
0.352708
57.1217
40.6644
33.2429
29.5981
27.5629
26.2416
25.2523
24.4227
23.6675
22.9392
22.2072
21.4494
20.6519
19.812
18.9406
18.0525
17.1628
16.2871
15.44
14.6282
13.8498
13.0981
12.3654
11.6453
10.9327
10.2244
9.51846
8.81357
8.10907
7.40463
6.70007
5.99534
5.29042
4.58533
3.88009
3.17474
2.46929
1.76378
1.05824
0.352702
55.8988
40.1199
33.0023
29.4964
27.5256
26.2333
25.2554
24.4277
23.6695
22.9361
22.1989
21.4377
20.6403
19.8044
18.9394
18.0586
17.1763
16.3066
15.463
14.6515
13.8711
13.1162
12.3799
11.6563
10.9408
10.2302
9.52245
8.81627
8.11085
7.40577
6.70079
5.99577
5.29066
4.58546
3.88015
3.17476
2.46929
1.76377
1.05823
0.352694
54.0874
39.3241
32.6583
29.3569
27.4792
26.2278
25.2652
24.4396
23.6767
22.9358
22.191
21.4248
20.6268
19.7954
18.9382
18.0667
17.1937
16.3317
15.4924
14.6815
13.8986
13.1395
12.3986
11.6706
10.9513
10.2377
9.52767
8.81979
8.11318
7.40726
6.70171
5.99632
5.29098
4.58563
3.88023
3.17479
2.4693
1.76376
1.05821
0.352684
51.7203
38.3065
32.2343
29.1965
27.4355
26.2333
25.2875
24.4627
23.6929
22.942
22.1876
21.4148
20.6152
19.7876
18.9379
18.0759
17.2124
16.3584
15.5236
14.7134
13.928
13.1646
12.4188
11.6861
10.9628
10.2459
9.53336
8.82364
8.11572
7.40889
6.70272
5.99693
5.29132
4.58581
3.88031
3.17482
2.4693
1.76375
1.0582
0.352675
48.8523
37.1151
31.7667
29.0406
27.4112
26.2603
25.3288
24.5013
23.7214
22.958
22.1921
21.4111
20.6083
19.7828
18.9391
18.085
17.2299
16.383
15.5523
14.7428
13.9553
13.188
12.4377
11.7007
10.9736
10.2537
9.53878
8.82731
8.11813
7.41043
6.70368
5.99749
5.29164
4.58597
3.88038
3.17484
2.46929
1.76374
1.05819
0.35267
45.5784
35.8291
31.311
28.9243
27.4268
26.3195
25.3943
24.5578
23.7633
22.9847
22.2054
21.4148
20.6073
19.7817
18.9416
18.0932
17.2443
16.4027
15.5753
14.7664
13.9773
13.2071
12.4533
11.7127
10.9826
10.2601
9.54326
8.83034
8.12012
7.4117
6.70445
5.99794
5.29189
4.58609
3.88043
3.17484
2.46928
1.76373
1.05818
0.35267
42.0767
34.5828
30.9499
28.8917
27.5022
26.418
25.4845
24.6297
23.8156
23.0191
22.2254
21.4245
20.611
19.7836
18.9447
18.0994
17.2543
16.4162
15.591
14.7826
13.9925
13.2203
12.464
11.7211
10.9888
10.2646
9.54636
8.83242
8.12147
7.41255
6.70496
5.99823
5.29204
4.58615
3.88045
3.17484
2.46927
1.76372
1.05818
0.352676
38.7181
33.6049
30.7909
28.9804
27.6419
26.5464
25.5863
24.7046
23.8676
23.0531
22.246
21.4358
20.6166
19.7865
18.9472
18.1029
17.2595
16.423
15.5989
14.7907
14.0002
13.227
12.4695
11.7253
10.9919
10.2668
9.54784
8.83339
8.12208
7.41291
6.70516
5.99833
5.29207
4.58615
3.88043
3.17481
2.46925
1.7637
1.05818
0.352685
36.3674
33.2452
30.9079
29.1619
27.792
26.6538
25.659
24.7524
23.8983
23.0722
22.2574
21.4422
20.6199
19.7881
18.9478
18.1032
17.2597
16.4233
15.5992
14.791
14.0004
13.227
12.4694
11.7251
10.9916
10.2665
9.54757
8.83314
8.12186
7.41272
6.70501
5.99821
5.29198
4.58608
3.88038
3.17477
2.46922
1.76368
1.05817
0.35269
33.9997
32.5661
30.8262
29.2463
27.8983
26.7427
25.7247
24.7985
23.9297
23.0933
22.2712
21.4511
20.6254
19.7911
18.9491
18.1033
17.2589
16.422
15.5976
14.7894
13.9989
13.2258
12.4684
11.7244
10.9911
10.2662
9.54737
8.83303
8.1218
7.41271
6.70502
5.99823
5.29201
4.58612
3.88042
3.17481
2.46925
1.76371
1.05819
0.352693
34.6998
32.7582
30.8008
29.1695
27.8275
26.6902
25.6888
24.7742
23.9129
23.0809
22.2615
21.4433
20.6194
19.7872
18.9476
18.1042
17.2622
16.4273
15.6044
14.7969
14.0065
13.233
12.4749
11.7299
10.9956
10.2697
9.55013
8.83512
8.12335
7.41383
6.70582
5.99879
5.2924
4.58638
3.8806
3.17493
2.46933
1.76377
1.05822
0.352702
36.0989
33.4322
31.0321
29.2029
27.7893
26.6349
25.6369
24.7321
23.8811
23.0582
22.2461
21.4333
20.6131
19.7831
18.9448
18.102
17.2602
16.4254
15.6025
14.7953
14.0053
13.2323
12.4745
11.7299
10.9959
10.2702
9.55062
8.8356
8.12379
7.41421
6.70614
5.99905
5.2926
4.58654
3.88072
3.17502
2.4694
1.76381
1.05825
0.352702
37.7495
34.3415
31.4301
29.3356
27.8027
26.6025
25.5929
24.691
23.8483
23.0348
22.2312
21.4248
20.6085
19.7801
18.9415
18.0972
17.2535
16.4168
15.5929
14.7856
13.9964
13.2246
12.4684
11.7253
10.9926
10.2679
9.54915
8.8347
8.12329
7.41396
6.70604
5.99905
5.29264
4.5866
3.88078
3.17508
2.46944
1.76384
1.05827
0.352704
39.3929
35.3121
31.904
29.5314
27.8601
26.5982
25.5657
24.6601
23.8223
23.0167
22.2211
21.4208
20.6077
19.7794
18.9384
18.0906
17.2429
16.4027
15.5767
14.769
13.9809
13.2112
12.4576
11.7169
10.9864
10.2635
9.54614
8.83271
8.12202
7.4132
6.70561
5.99883
5.29255
4.58658
3.8808
3.17511
2.46948
1.76387
1.05828
0.35271
40.8854
36.2311
32.3823
29.7512
27.9437
26.6158
25.5553
24.6416
23.8057
23.0063
22.2175
21.4223
20.6112
19.7813
18.9363
18.083
17.2296
16.3845
15.5556
14.7474
13.9608
13.1939
12.4435
11.706
10.9783
10.2577
9.5421
8.83
8.12026
7.41209
6.70495
5.99845
5.29236
4.5865
3.88078
3.17512
2.4695
1.7639
1.0583
0.352721
42.1447
37.0274
32.8137
29.9624
28.0346
26.6454
25.557
24.6337
23.7978
23.0029
22.2196
21.4285
20.6183
19.7854
18.935
18.0753
17.2153
16.3646
15.5323
14.7237
13.9388
13.175
12.4281
11.6941
10.9694
10.2513
9.53766
8.827
8.1183
7.41085
6.70419
5.99802
5.29212
4.58639
3.88074
3.17512
2.46952
1.76392
1.05832
0.352735
43.1219
37.6559
33.1631
30.1403
28.1167
26.6772
25.565
24.6327
23.796
23.0043
22.2252
21.4372
20.6269
19.7905
18.9346
18.0685
17.2022
16.3458
15.5104
14.7013
13.9182
13.1573
12.4138
11.683
10.9612
10.2454
9.53354
8.82421
8.11646
7.40968
6.70347
5.99759
5.29189
4.58627
3.88069
3.17511
2.46953
1.76393
1.05834
0.352749
43.7872
38.0884
33.4074
30.2678
28.1779
26.7032
25.5737
24.6347
23.7971
23.0075
22.2313
21.4451
20.6345
19.795
18.9346
18.0635
17.192
16.3313
15.4934
14.684
13.9022
13.1436
12.4027
11.6745
10.9549
10.2409
9.53038
8.82206
8.11505
7.40878
6.70292
5.99727
5.29171
4.58618
3.88065
3.1751
2.46953
1.76395
1.05835
0.352761
44.1236
38.3085
33.5328
30.3342
28.2105
26.7176
25.5792
24.6365
23.7984
23.0098
22.2351
21.4499
20.639
19.7977
18.9347
18.0608
17.1866
16.3235
15.4842
14.6746
13.8935
13.1362
12.3968
11.6699
10.9515
10.2384
9.52868
8.82092
8.1143
7.4083
6.70262
5.99709
5.29162
4.58614
3.88063
3.1751
2.46954
1.76395
1.05836
0.352767
44.1236
38.3085
33.5328
30.3342
28.2105
26.7176
25.5792
24.6366
23.7984
23.0099
22.2351
21.45
20.639
19.7978
18.9348
18.0609
17.1867
16.3236
15.4843
14.6747
13.8936
13.1363
12.3969
11.67
10.9515
10.2385
9.52872
8.82095
8.11432
7.40832
6.70264
5.99711
5.29162
4.58614
3.88064
3.1751
2.46954
1.76395
1.05836
0.352766
43.7872
38.0885
33.4074
30.2679
28.178
26.7032
25.5738
24.6347
23.7972
23.0076
22.2314
21.4453
20.6348
19.7953
18.9349
18.0638
17.1924
16.3317
15.4938
14.6843
13.9025
13.1439
12.403
11.6747
10.9551
10.241
9.53051
8.82217
8.11513
7.40884
6.70297
5.9973
5.29174
4.5862
3.88066
3.17511
2.46954
1.76395
1.05835
0.352759
43.1219
37.656
33.1631
30.1404
28.1167
26.6773
25.5651
24.6328
23.7961
23.0045
22.2255
21.4375
20.6273
19.7909
18.9351
18.0691
17.2027
16.3463
15.5109
14.7018
13.9187
13.1577
12.4142
11.6834
10.9615
10.2457
9.53375
8.82438
8.11659
7.40978
6.70355
5.99765
5.29193
4.5863
3.88071
3.17512
2.46953
1.76394
1.05834
0.352746
42.1448
37.0275
32.8138
29.9625
28.0347
26.6455
25.5571
24.6338
23.7979
23.0031
22.22
21.429
20.6188
19.786
18.9357
18.076
17.216
16.3652
15.533
14.7243
13.9394
13.1756
12.4286
11.6946
10.9698
10.2516
9.53794
8.82722
8.11847
7.41098
6.70429
5.99809
5.29218
4.58642
3.88076
3.17513
2.46952
1.76392
1.05832
0.352731
40.8855
36.2312
32.3824
29.7513
27.9438
26.6158
25.5554
24.6418
23.8059
23.0066
22.2178
21.4228
20.6118
19.7819
18.937
18.0837
17.2304
16.3853
15.5563
14.7482
13.9615
13.1946
12.4441
11.7065
10.9788
10.2581
9.54242
8.83026
8.12046
7.41225
6.70507
5.99854
5.29242
4.58654
3.8808
3.17514
2.46951
1.7639
1.0583
0.352716
39.393
35.3121
31.9041
29.5314
27.8602
26.5983
25.5659
24.6603
23.8225
23.0171
22.2215
21.4213
20.6083
19.7801
18.9392
18.0914
17.2437
16.4035
15.5775
14.7698
13.9817
13.212
12.4582
11.7175
10.9869
10.2639
9.54649
8.833
8.12225
7.41337
6.70574
5.99892
5.29261
4.58662
3.88082
3.17512
2.46948
1.76387
1.05828
0.352704
37.7496
34.3416
31.4301
29.3357
27.8027
26.6026
25.593
24.6912
23.8486
23.0352
22.2316
21.4253
20.6092
19.7809
18.9423
18.0981
17.2544
16.4177
15.5938
14.7865
13.9972
13.2254
12.4691
11.7259
10.9931
10.2684
9.54952
8.835
8.12352
7.41414
6.70617
5.99914
5.2927
4.58664
3.8808
3.17509
2.46944
1.76384
1.05826
0.352697
36.0989
33.4322
31.0321
29.2029
27.7893
26.635
25.6371
24.7323
23.8814
23.0586
22.2465
21.4338
20.6137
19.7839
18.9456
18.1029
17.2611
16.4263
15.6034
14.7962
14.0062
13.233
12.4753
11.7306
10.9965
10.2706
9.55098
8.83589
8.12402
7.41438
6.70626
5.99914
5.29266
4.58657
3.88073
3.17502
2.46939
1.7638
1.05824
0.352694
34.6997
32.7581
30.8008
29.1695
27.8275
26.6903
25.6889
24.7744
23.9131
23.0812
22.262
21.4439
20.6201
19.788
18.9484
18.1051
17.2631
16.4282
15.6053
14.7978
14.0074
13.2338
12.4755
11.7305
10.9962
10.2702
9.55049
8.83539
8.12356
7.41399
6.70593
5.99887
5.29244
4.58641
3.8806
3.17493
2.46932
1.76375
1.05821
0.352694
33.9994
32.5659
30.8261
29.2463
27.8983
26.7428
25.7249
24.7987
23.93
23.0936
22.2716
21.4516
20.626
19.7919
18.95
18.1041
17.2598
16.4229
15.5985
14.7903
13.9997
13.2266
12.4691
11.725
10.9916
10.2666
9.5477
8.83329
8.122
7.41285
6.70511
5.9983
5.29205
4.58614
3.88042
3.1748
2.46924
1.7637
1.05817
0.352683
32.0766
31.4148
30.2736
29.0249
27.8342
26.7454
25.7517
24.8315
23.9616
23.1219
22.296
21.4719
20.6421
19.8033
18.9566
18.1062
17.2577
16.4175
15.591
14.7819
13.9915
13.2192
12.4629
11.7201
10.9879
10.2639
9.54578
8.83197
8.12112
7.41229
6.70477
5.9981
5.29195
4.5861
3.88042
3.17483
2.46927
1.76372
1.05819
0.352682
32.2066
31.4419
30.2264
28.9592
27.7767
26.7025
25.7214
24.8098
23.9448
23.1074
22.2827
21.4598
20.6318
19.7961
18.9536
18.1078
17.2639
16.4277
15.6039
14.7961
14.0057
13.2324
12.4746
11.7299
10.9959
10.2701
9.55055
8.83554
8.12374
7.41417
6.70611
5.99903
5.29259
4.58653
3.88071
3.17501
2.46939
1.76381
1.05824
0.352701
32.723
31.7794
30.3807
29.0033
27.769
26.6757
25.6912
24.7822
23.9217
23.089
22.2684
21.4489
20.6239
19.7906
18.9502
18.1065
17.2644
16.4296
15.6069
14.7998
14.0099
13.2367
12.4787
11.7337
10.9991
10.2729
9.55281
8.83734
8.12515
7.41525
6.70692
5.99963
5.29302
4.58684
3.88093
3.17517
2.4695
1.76388
1.05829
0.352707
33.4556
32.2991
30.6677
29.1317
27.8088
26.6729
25.6713
24.7585
23.9004
23.0723
22.2568
21.4417
20.6193
19.7872
18.9469
18.1027
17.2598
16.4241
15.6011
14.7944
14.0054
13.2333
12.4763
11.7322
10.9984
10.2726
9.55289
8.83759
8.12548
7.4156
6.70724
5.99992
5.29327
4.58704
3.88109
3.17529
2.46959
1.76394
1.05832
0.352715
34.2556
32.8918
31.0213
29.3119
27.8846
26.693
25.6656
24.7438
23.8854
23.0612
22.2507
21.4396
20.6191
19.7863
18.9438
18.0968
17.2509
16.4124
15.5879
14.7814
13.9937
13.2236
12.4688
11.7266
10.9945
10.27
9.55122
8.83661
8.12495
7.41536
6.70718
5.99995
5.29335
4.58714
3.88119
3.17538
2.46966
1.764
1.05836
0.352728
35.0224
33.4765
31.3868
29.5116
27.9798
26.7293
25.6725
24.7387
23.8782
23.0569
22.2509
21.4434
20.6236
19.7879
18.9413
18.0897
17.2389
16.3959
15.5691
14.7627
13.9769
13.2095
12.4577
11.7183
10.9884
10.2658
9.54838
8.83478
8.12382
7.41471
6.70684
5.99981
5.29331
4.58717
3.88124
3.17544
2.46972
1.76404
1.05839
0.352747
35.6916
33.9968
31.722
29.7031
28.0778
26.7728
25.6874
24.7412
23.8777
23.0584
22.2563
21.4518
20.6318
19.7915
18.9393
18.0822
17.2257
16.3769
15.5474
14.7413
13.9578
13.1936
12.445
11.7087
10.9814
10.2608
9.545
8.83255
8.12241
7.41385
6.70636
5.99955
5.2932
4.58714
3.88125
3.17548
2.46976
1.76408
1.05842
0.352769
36.222
34.4147
31.9969
29.8647
28.1643
26.8145
25.7049
24.7477
23.8812
23.0634
22.2644
21.4624
20.6416
19.7957
18.9377
18.0754
17.2133
16.3586
15.5264
14.7207
13.9395
13.1783
12.433
11.6995
10.9747
10.2561
9.54174
8.83038
8.12102
7.41299
6.70585
5.99928
5.29307
4.58709
3.88125
3.1755
2.46979
1.76411
1.05844
0.35279
36.5881
34.7056
32.1906
29.9808
28.2282
26.8467
25.7198
24.7546
23.8858
23.0689
22.2721
21.4717
20.6498
19.7994
18.9366
18.0702
17.2037
16.3444
15.51
14.7047
13.9252
13.1665
12.4236
11.6924
10.9695
10.2524
9.5392
8.82868
8.11992
7.41231
6.70545
5.99906
5.29296
4.58705
3.88125
3.17551
2.46981
1.76413
1.05846
0.352807
36.7745
34.8544
32.2905
30.0413
28.262
26.8642
25.7283
24.7588
23.8889
23.0724
22.2767
21.4771
20.6545
19.8015
18.9361
18.0673
17.1984
16.3367
15.5011
14.6959
13.9174
13.16
12.4185
11.6886
10.9667
10.2504
9.53783
8.82777
8.11933
7.41195
6.70523
5.99894
5.2929
4.58703
3.88124
3.17552
2.46982
1.76414
1.05847
0.352816
36.7745
34.8545
32.2906
30.0413
28.262
26.8642
25.7283
24.7589
23.8889
23.0725
22.2768
21.4772
20.6545
19.8016
18.9362
18.0674
17.1985
16.3368
15.5012
14.696
13.9175
13.1601
12.4186
11.6886
10.9667
10.2504
9.53787
8.8278
8.11936
7.41197
6.70525
5.99895
5.29291
4.58703
3.88125
3.17552
2.46982
1.76414
1.05847
0.352815
36.5881
34.7056
32.1907
29.9808
28.2283
26.8468
25.7199
24.7546
23.8859
23.069
22.2722
21.4719
20.65
19.7996
18.9369
18.0705
17.204
16.3447
15.5103
14.705
13.9255
13.1668
12.4239
11.6926
10.9697
10.2525
9.53933
8.82878
8.12
7.41238
6.7055
5.99909
5.29299
4.58707
3.88126
3.17552
2.46981
1.76413
1.05846
0.352804
36.2221
34.4148
31.9969
29.8648
28.1644
26.8145
25.705
24.7478
23.8813
23.0635
22.2646
21.4627
20.6419
19.7962
18.9382
18.0759
17.2138
16.3591
15.5269
14.7212
13.9399
13.1788
12.4334
11.6999
10.975
10.2563
9.54194
8.83054
8.12115
7.41309
6.70593
5.99934
5.29311
4.58712
3.88127
3.17551
2.46979
1.76411
1.05844
0.352786
35.6917
33.9969
31.7221
29.7032
28.0779
26.7729
25.6875
24.7413
23.8778
23.0586
22.2566
21.4522
20.6323
19.7921
18.9399
18.0829
17.2263
16.3775
15.548
14.7419
13.9584
13.1941
12.4455
11.7091
10.9818
10.2611
9.54527
8.83276
8.12258
7.41398
6.70645
5.99963
5.29325
4.58717
3.88128
3.17549
2.46976
1.76408
1.05842
0.352763
35.0226
33.4766
31.3869
29.5117
27.9798
26.7294
25.6726
24.7388
23.8784
23.0571
22.2512
21.4438
20.6242
19.7886
18.942
18.0904
17.2397
16.3966
15.5698
14.7634
13.9776
13.2102
12.4583
11.7188
10.9889
10.2661
9.54869
8.83503
8.12402
7.41486
6.70696
5.99989
5.29337
4.5872
3.88126
3.17545
2.46972
1.76404
1.05838
0.35274
34.2557
32.8919
31.0214
29.3119
27.8846
26.693
25.6657
24.744
23.8856
23.0615
22.2511
21.4401
20.6198
19.787
18.9446
18.0976
17.2517
16.4132
15.5887
14.7822
13.9944
13.2243
12.4694
11.7272
10.995
10.2704
9.55157
8.83688
8.12516
7.41552
6.7073
6.00004
5.29341
4.58718
3.88121
3.17539
2.46966
1.76399
1.05835
0.35272
33.4556
32.2992
30.6677
29.1317
27.8089
26.6729
25.6715
24.7587
23.9006
23.0727
22.2573
21.4422
20.6199
19.7879
18.9477
18.1035
17.2607
16.425
15.602
14.7953
14.0062
13.234
12.477
11.7328
10.9989
10.2731
9.55324
8.83788
8.1257
7.41577
6.70737
6.00001
5.29332
4.58708
3.88111
3.1753
2.46959
1.76394
1.05831
0.352706
32.7229
31.7794
30.3807
29.0033
27.769
26.6758
25.6913
24.7824
23.922
23.0893
22.2688
21.4495
20.6245
19.7913
18.9511
18.1074
17.2653
16.4305
15.6078
14.8007
14.0107
13.2375
12.4794
11.7343
10.9997
10.2733
9.55317
8.83762
8.12537
7.41541
6.70703
5.99971
5.29307
4.58687
3.88094
3.17517
2.46949
1.76387
1.05828
0.352698
32.2065
31.4417
30.2263
28.9592
27.7768
26.7025
25.7215
24.81
23.945
23.1077
22.2831
21.4603
20.6325
19.7969
18.9544
18.1086
17.2648
16.4286
15.6048
14.797
14.0066
13.2332
12.4753
11.7305
10.9964
10.2705
9.55089
8.83581
8.12395
7.41432
6.70621
5.9991
5.29263
4.58655
3.88071
3.17501
2.46938
1.76379
1.05823
0.352691
32.0763
31.4146
30.2735
29.0248
27.8342
26.7454
25.7518
24.8317
23.9619
23.1222
22.2964
21.4725
20.6427
19.804
18.9574
18.107
17.2586
16.4184
15.5919
14.7828
13.9923
13.2199
12.4636
11.7207
10.9884
10.2643
9.54609
8.8322
8.1213
7.41241
6.70486
5.99815
5.29197
4.58611
3.88041
3.17481
2.46924
1.7637
1.05817
0.352669
30.655
30.3027
29.5572
28.6162
27.6231
26.6491
25.7185
24.8314
23.9784
23.1466
22.3237
21.4992
20.666
19.8216
18.9679
18.11
17.2545
16.4086
15.5783
14.7676
13.9775
13.2067
12.4525
11.7119
10.9818
10.2594
9.54265
8.82984
8.11972
7.41139
6.70422
5.99778
5.29177
4.58601
3.88039
3.17482
2.46927
1.76373
1.05819
0.352675
30.6146
30.2646
29.4976
28.5526
27.5681
26.6062
25.6859
24.8058
23.9564
23.1261
22.3037
21.4803
20.6498
19.81
18.9626
18.1118
17.2633
16.4233
15.5971
14.7882
13.9979
13.2255
12.4689
11.7255
10.9927
10.2679
9.54909
8.83463
8.12321
7.4139
6.70599
5.999
5.29261
4.58658
3.88076
3.17507
2.46944
1.76384
1.05826
0.352702
30.7598
30.4002
29.5727
28.5768
27.5627
26.5875
25.6631
24.7833
23.9359
23.108
22.2883
21.4676
20.6397
19.8026
18.9583
18.1109
17.2656
16.4281
15.6038
14.7962
14.0065
13.234
12.4768
11.7325
10.9985
10.2727
9.5529
8.83758
8.12546
7.41558
6.70722
5.9999
5.29325
4.58703
3.88108
3.17529