# vtk DataFile Version 2.0
I need something to put here
ASCII

DATASET STRUCTURED_GRID
DIMENSIONS 41 21 21
POINTS 18081 float
0.000000 0.000000 0.000000
0.100000 0.000000 0.000000
0.200000 0.000000 0.000000
0.300000 0.000000 0.000000
0.400000 0.000000 0.000000
0.500000 0.000000 0.000000
0.600000 0.000000 0.000000
0.700000 0.000000 0.000000
0.800000 0.000000 0.000000
0.900000 0.000000 0.000000
1.000000 0.000000 0.000000
1.100000 0.000000 0.000000
1.200000 0.000000 0.000000
1.300000 0.000000 0.000000
1.400000 0.000000 0.000000
1.500000 0.000000 0.000000
1.600000 0.000000 0.000000
1.700000 0.000000 0.000000
1.800000 0.000000 0.000000
1.900000 0.000000 0.000000
2.000000 0.000000 0.000000
2.100000 0.000000 0.000000
2.200000 0.000000 0.000000
2.300000 0.000000 0.000000
2.400000 0.000000 0.000000
2.500000 0.000000 0.000000
2.600000 0.000000 0.000000
2.700000 0.000000 0.000000
2.800000 0.000000 0.000000
2.900000 0.000000 0.000000
3.000000 0.000000 0.000000
3.100000 0.000000 0.000000
3.200000 0.000000 0.000000
3.300000 0.000000 0.000000
3.400000 0.000000 0.000000
3.500000 0.000000 0.000000
3.600000 0.000000 0.000000
3.700000 0.000000 0.000000
3.800000 0.000000 0.000000
3.900000 0.000000 0.000000
4.000000 0.000000 0.000000
0.000000 0.100000 0.000000
0.100000 0.100000 0.000000
0.200000 0.100000 0.000000
0.300000 0.100000 0.000000
0.400000 0.100000 0.000000
0.500000 0.100000 0.000000
0.600000 0.100000 0.000000
0.700000 0.100000 0.000000
0.800000 0.100000 0.000000
0.900000 0.100000 0.000000
1.000000 0.100000 0.000000
1.100000 0.100000 0.000000
1.200000 0.100000 0.000000
1.300000 0.100000 0.000000
1.400000 0.100000 0.000000
1.500000 0.100000 0.000000
1.600000 0.100000 0.000000
1.700000 0.100000 0.000000
1.800000 0.100000 0.000000
1.900000 0.100000 0.000000
2.000000 0.100000 0.000000
2.100000 0.100000 0.000000
2.200000 0.100000 0.000000
2.300000 0.100000 0.000000
2.400000 0.100000 0.000000
2.500000 0.100000 0.000000
2.600000 0.100000 0.000000
2.700000 0.100000 0.000000
2.800000 0.100000 0.000000
2.900000 0.100000 0.000000
3.000000 0.100000 0.000000
3.100000 0.100000 0.000000
3.200000 0.100000 0.000000
3.300000 0.100000 0.000000
3.400000 0.100000 0.000000
3.500000 0.100000 0.000000
3.600000 0.100000 0.000000
3.700000 0.100000 0.000000
3.800000 0.100000 0.000000
3.900000 0.100000 0.000000
4.000000 0.100000 0.000000
0.000000 0.200000 0.000000
0.100000 0.200000 0.000000
0.200000 0.200000 0.000000
0.300000 0.200000 0.000000
0.400000 0.200000 0.000000
0.500000 0.200000 0.000000
0.600000 0.200000 0.000000
0.700000 0.200000 0.000000
0.800000 0.200000 0.000000
0.900000 0.200000 0.000000
1.000000 0.200000 0.000000
1.100000 0.200000 0.000000
1.200000 0.200000 0.000000
1.300000 0.200000 0.000000
1.400000 0.200000 0.000000
1.500000 0.200000 0.000000
1.600000 0.200000 0.000000
1.700000 0.200000 0.000000
1.800000 0.200000 0.000000
1.900000 0.200000 0.000000
2.000000 0.200000 0.000000
2.100000 0.200000 0.000000
2.200000 0.200000 0.000000
2.300000 0.200000 0.000000
2.400000 0.200000 0.000000
2.500000 0.200000 0.000000
2.600000 0.200000 0.000000
2.700000 0.200000 0.000000
2.800000 0.200000 0.000000
2.900000 0.200000 0.000000
3.000000 0.200000 0.000000
3.100000 0.200000 0.000000
3.200000 0.200000 0.000000
3.300000 0.200000 0.000000
3.400000 0.200000 0.000000
3.500000 0.200000 0.000000
3.600000 0.200000 0.000000
3.700000 0.200000 0.000000
3.800000 0.200000 0.000000
3.900000 0.200000 0.000000
4.000000 0.200000 0.000000
0.000000 0.300000 0.000000
0.100000 0.300000 0.000000
0.200000 0.300000 0.000000
0.300000 0.300000 0.000000
0.400000 0.300000 0.000000
0.500000 0.300000 0.000000
0.600000 0.300000 0.000000
0.700000 0.300000 0.000000
0.800000 0.300000 0.000000
0.900000 0.300000 0.000000
1.000000 0.300000 0.000000
1.100000 0.300000 0.000000
1.200000 0.300000 0.000000
1.300000 0.300000 0.000000
1.400000 0.300000 0.000000
1.500000 0.300000 0.000000
1.600000 0.300000 0.000000
1.700000 0.300000 0.000000
1.800000 0.300000 0.000000
1.900000 0.300000 0.000000
2.000000 0.300000 0.000000
2.100000 0.300000 0.000000
2.200000 0.300000 0.000000
2.300000 0.300000 0.000000
2.400000 0.300000 0.000000
2.500000 0.300000 0.000000
2.600000 0.300000 0.000000
2.700000 0.300000 0.000000
2.800000 0.300000 0.000000
2.900000 0.300000 0.000000
3.000000 0.300000 0.000000
3.100000 0.300000 0.000000
3.200000 0.300000 0.000000
3.300000 0.300000 0.000000
3.400000 0.300000 0.000000
3.500000 0.300000 0.000000
3.600000 0.300000 0.000000
3.700000 0.300000 0.000000
3.800000 0.300000 0.000000
3.900000 0.300000 0.000000
4.000000 0.300000 0.000000
0.000000 0.400000 0.000000
0.100000 0.400000 0.000000
0.200000 0.400000 0.000000
0.300000 0.400000 0.000000
0.400000 0.400000 0.000000
0.500000 0.400000 0.000000
0.600000 0.400000 0.000000
0.700000 0.400000 0.000000
0.800000 0.400000 0.000000
0.900000 0.400000 0.000000
1.000000 0.400000 0.000000
1.100000 0.400000 0.000000
1.200000 0.400000 0.000000
1.300000 0.400000 0.000000
1.400000 0.400000 0.000000
1.500000 0.400000 0.000000
1.600000 0.400000 0.000000
1.700000 0.400000 0.000000
1.800000 0.400000 0.000000
1.900000 0.400000 0.000000
2.000000 0.400000 0.000000
2.100000 0.400000 0.000000
2.200000 0.400000 0.000000
2.300000 0.400000 0.000000
2.400000 0.400000 0.000000
2.500000 0.400000 0.000000
2.600000 0.400000 0.000000
2.700000 0.400000 0.000000
2.800000 0.400000 0.000000
2.900000 0.400000 0.000000
3.000000 0.400000 0.000000
3.100000 0.400000 0.000000
3.200000 0.400000 0.000000
3.300000 0.400000 0.000000
3.400000 0.400000 0.000000
3.500000 0.400000 0.000000
3.600000 0.400000 0.000000
3.700000 0.400000 0.000000
3.800000 0.400000 0.000000
3.900000 0.400000 0.000000
4.000000 0.400000 0.000000
0.000000 0.500000 0.000000
0.100000 0.500000 0.000000
0.200000 0.500000 0.000000
0.300000 0.500000 0.000000
0.400000 0.500000 0.000000
0.500000 0.500000 0.000000
0.600000 0.500000 0.000000
0.700000 0.500000 0.000000
0.800000 0.500000 0.000000
0.900000 0.500000 0.000000
1.000000 0.500000 0.000000
1.100000 0.500000 0.000000
1.200000 0.500000 0.000000
1.300000 0.500000 0.000000
1.400000 0.500000 0.000000
1.500000 0.500000 0.000000
1.600000 0.500000 0.000000
1.700000 0.500000 0.000000
1.800000 0.500000 0.000000
1.900000 0.500000 0.000000
2.000000 0.500000 0.000000
2.100000 0.500000 0.000000
2.200000 0.500000 0.000000
2.300000 0.500000 0.000000
2.400000 0.500000 0.000000
2.500000 0.500000 0.000000
2.600000 0.500000 0.000000
2.700000 0.500000 0.000000
2.800000 0.500000 0.000000
2.900000 0.500000 0.000000
3.000000 0.500000 0.000000
3.100000 0.500000 0.000000
3.200000 0.500000 0.000000
3.300000 0.500000 0.000000
3.400000 0.500000 0.000000
3.500000 0.500000 0.000000
3.600000 0.500000 0.000000
3.700000 0.500000 0.000000
3.800000 0.500000 0.000000
3.900000 0.500000 0.000000
4.000000 0.500000 0.000000
0.000000 0.600000 0.000000
0.100000 0.600000 0.000000
0.200000 0.600000 0.000000
0.300000 0.600000 0.000000
0.400000 0.600000 0.000000
0.500000 0.600000 0.000000
0.600000 0.600000 0.000000
0.700000 0.600000 0.000000
0.800000 0.600000 0.000000
0.900000 0.600000 0.000000
1.000000 0.600000 0.000000
1.100000 0.600000 0.000000
1.200000 0.600000 0.000000
1.300000 0.600000 0.000000
1.400000 0.600000 0.000000
1.500000 0.600000 0.000000
1.600000 0.600000 0.000000
1.700000 0.600000 0.000000
1.800000 0.600000 0.000000
1.900000 0.600000 0.000000
2.000000 0.600000 0.000000
2.100000 0.600000 0.000000
2.200000 0.600000 0.000000
2.300000 0.600000 0.000000
2.400000 0.600000 0.000000
2.500000 0.600000 0.000000
2.600000 0.600000 0.000000
2.700000 0.600000 0.000000
2.800000 0.600000 0.000000
2.900000 0.600000 0.000000
3.000000 0.600000 0.000000
3.100000 0.600000 0.000000
3.200000 0.600000 0.000000
3.300000 0.600000 0.000000
3.400000 0.600000 0.000000
3.500000 0.600000 0.000000
3.600000 0.600000 0.000000
3.700000 0.600000 0.000000
3.800000 0.600000 0.000000
3.900000 0.600000 0.000000
4.000000 0.600000 0.000000
0.000000 0.700000 0.000000
0.100000 0.700000 0.000000
0.200000 0.700000 0.000000
0.300000 0.700000 0.000000
0.400000 0.700000 0.000000
0.500000 0.700000 0.000000
0.600000 0.700000 0.000000
0.700000 0.700000 0.000000
0.800000 0.700000 0.000000
0.900000 0.700000 0.000000
1.000000 0.700000 0.000000
1.100000 0.700000 0.000000
1.200000 0.700000 0.000000
1.300000 0.700000 0.000000
1.400000 0.700000 0.000000
1.500000 0.700000 0.000000
1.600000 0.700000 0.000000
1.700000 0.700000 0.000000
1.800000 0.700000 0.000000
1.900000 0.700000 0.000000
2.000000 0.700000 0.000000
2.100000 0.700000 0.000000
2.200000 0.700000 0.000000
2.300000 0.700000 0.000000
2.400000 0.700000 0.000000
2.500000 0.700000 0.000000
2.600000 0.700000 0.000000
2.700000 0.700000 0.000000
2.800000 0.700000 0.000000
2.900000 0.700000 0.000000
3.000000 0.700000 0.000000
3.100000 0.700000 0.000000
3.200000 0.700000 0.000000
3.300000 0.700000 0.000000
3.400000 0.700000 0.000000
3.500000 0.700000 0.000000
3.600000 0.700000 0.000000
3.700000 0.700000 0.000000
3.800000 0.700000 0.000000
3.900000 0.700000 0.000000
4.000000 0.700000 0.000000
0.000000 0.800000 0.000000
0.100000 0.800000 0.000000
0.200000 0.800000 0.000000
0.300000 0.800000 0.000000
0.400000 0.800000 0.000000
0.500000 0.800000 0.000000
0.600000 0.800000 0.000000
0.700000 0.800000 0.000000
0.800000 0.800000 0.000000
0.900000 0.800000 0.000000
1.000000 0.800000 0.000000
1.100000 0.800000 0.000000
1.200000 0.800000 0.000000
1.300000 0.800000 0.000000
1.400000 0.800000 0.000000
1.500000 0.800000 0.000000
1.600000 0.800000 0.000000
1.700000 0.800000 0.000000
1.800000 0.800000 0.000000
1.900000 0.800000 0.000000
2.000000 0.800000 0.000000
2.100000 0.800000 0.000000
2.200000 0.800000 0.000000
2.300000 0.800000 0.000000
2.400000 0.800000 0.000000
2.500000 0.800000 0.000000
2.600000 0.800000 0.000000
2.700000 0.800000 0.000000
2.800000 0.800000 0.000000
2.900000 0.800000 0.000000
3.000000 0.800000 0.000000
3.100000 0.800000 0.000000
3.200000 0.800000 0.000000
3.300000 0.800000 0.000000
3.400000 0.800000 0.000000
3.500000 0.800000 0.000000
3.600000 0.800000 0.000000
[...]
CELL_DATA 16000
SCALARS pressure float 1
LOOKUP_TABLE default
35.8506
32.728
30.3905
28.6451
27.2768
26.1418
25.1522
24.2536
23.411
22.6009
21.807
21.0185
20.2284
19.4337
18.6341
17.8321
17.0314
16.2359
15.4494
14.6743
13.9117
13.1611
12.4215
11.691
10.9677
10.25
9.53635
8.82557
8.11678
7.40931
6.7027
5.99662
5.29087
4.58529
3.87981
3.17437
2.46894
1.76352
1.05809
0.352683
38.2013
33.0876
30.2735
28.4636
27.1268
26.0344
25.0795
24.2058
23.3802
22.5816
21.7955
21.0119
20.2249
19.432
18.6334
17.8319
17.0312
16.2358
15.4492
14.6742
13.9116
13.1612
12.4216
11.6911
10.9679
10.2502
9.53655
8.82575
8.11693
7.40944
6.7028
5.9967
5.29093
4.58534
3.87984
3.17439
2.46896
1.76353
1.0581
0.352681
41.5598
34.0654
30.4323
28.3745
26.9866
25.9052
24.9766
24.1295
23.3264
22.5454
21.7724
20.9982
20.2173
19.4275
18.6302
17.8284
17.0269
16.2305
15.4434
14.6683
13.9062
13.1565
12.4179
11.6884
10.9659
10.2488
9.53563
8.82517
8.11658
7.40924
6.7027
5.99666
5.29092
4.58535
3.87986
3.17441
2.46898
1.76354
1.0581
0.352677
45.0612
35.3112
30.7928
28.4063
26.91
25.8052
24.8844
24.0547
23.2706
22.5067
21.7478
20.9839
20.2094
19.4227
18.6256
17.8224
17.0187
16.2202
15.4318
14.6566
13.8954
13.1474
12.4105
11.6827
10.9618
10.2459
9.53366
8.82388
8.11576
7.40874
6.70241
5.99651
5.29085
4.58533
3.87986
3.17443
2.46899
1.76355
1.05811
0.352674
48.3342
36.5963
31.2474
28.5213
26.8927
25.7436
24.8156
23.9941
23.2234
22.4739
21.7277
20.9734
20.2046
19.4196
18.6212
17.8147
17.0071
16.2051
15.4148
14.6395
13.8797
13.134
12.3999
11.6746
10.9559
10.2417
9.5308
8.82199
8.11455
7.40799
6.70197
5.99626
5.29073
4.58527
3.87985
3.17443
2.46901
1.76356
1.05812
0.352676
51.2011
37.7866
31.7137
28.6756
26.9148
25.7137
24.7704
23.9503
23.1885
22.4502
21.7148
20.9688
20.2043
19.4194
18.6178
17.8063
16.9932
16.1866
15.3937
14.6183
13.8604
13.1177
12.3869
11.6648
10.9487
10.2367
9.52735
8.8197
8.11308
7.40708
6.70143
5.99595
5.29057
4.5852
3.87983
3.17444
2.46902
1.76358
1.05813
0.35268
53.5668
38.8028
32.1362
28.8341
26.956
25.705
24.7438
23.9216
23.1653
22.4356
21.709
20.9696
20.208
19.4218
18.6157
17.7982
16.9786
16.1666
15.3708
14.5954
13.8397
13.1003
12.3731
11.6544
10.9411
10.2314
9.52373
8.8173
8.11153
7.40612
6.70085
5.99563
5.29039
4.58512
3.8798
3.17444
2.46903
1.76359
1.05814
0.352686
55.3769
39.5973
32.4787
28.9719
27.0002
25.7075
24.73
23.9045
23.1515
22.4281
21.7083
20.9739
20.214
19.4256
18.6148
17.7911
16.9652
16.1479
15.3494
14.574
13.8203
13.0841
12.3604
11.6448
10.9342
10.2265
9.52043
8.81511
8.11013
7.40524
6.70032
5.99532
5.29023
4.58504
3.87977
3.17443
2.46904
1.76361
1.05815
0.352693
56.5988
40.1408
32.7182
29.0722
27.0358
25.7135
24.7239
23.8954
23.1443
22.4251
21.7098
20.9788
20.2198
19.4294
18.6145
17.7858
16.9549
16.1336
15.3328
14.5574
13.8054
13.0717
12.3506
11.6375
10.9289
10.2228
9.51792
8.81345
8.10906
7.40457
6.69992
5.9951
5.29011
4.58499
3.87975
3.17443
2.46905
1.76362
1.05816
0.352699
57.2139
40.4164
32.8411
29.1248
27.0554
25.7177
24.7218
23.8917
23.1414
22.4243
21.7113
20.982
20.2233
19.4317
18.6145
17.7831
16.9494
16.1258
15.3238
14.5484
13.7973
13.065
12.3453
11.6335
10.9261
10.2209
9.51658
8.81257
8.1085
7.40422
6.69971
5.99498
5.29005
4.58496
3.87974
3.17443
2.46905
1.76362
1.05816
0.352702
57.2139
40.4164
32.8411
29.1248
27.0554
25.7177
24.7218
23.8917
23.1414
22.4243
21.7114
20.982
20.2234
19.4318
18.6146
17.7832
16.9495
16.1259
15.3239
14.5485
13.7974
13.065
12.3454
11.6336
10.9261
10.2209
9.51662
8.8126
8.10852
7.40424
6.69973
5.99499
5.29005
4.58496
3.87975
3.17443
2.46905
1.76362
1.05816
0.352702
56.5988
40.1408
32.7182
29.0722
27.0358
25.7135
24.7239
23.8955
23.1444
22.4252
21.7099
20.979
20.22
19.4296
18.6147
17.7861
16.9552
16.1338
15.3331
14.5576
13.8057
13.0719
12.3508
11.6377
10.9291
10.223
9.51802
8.81353
8.10913
7.40462
6.69996
5.99512
5.29013
4.585
3.87976
3.17444
2.46905
1.76362
1.05816
0.352698
55.3769
39.5974
32.4788
28.9719
27.0003
25.7075
24.7301
23.9046
23.1515
22.4283
21.7084
20.9741
20.2143
19.426
18.6151
17.7915
16.9656
16.1484
15.3498
14.5744
13.8207
13.0845
12.3607
11.6451
10.9344
10.2267
9.52059
8.81524
8.11023
7.40532
6.70038
5.99537
5.29026
4.58506
3.87979
3.17444
2.46904
1.76361
1.05815
0.352691
53.5669
38.8029
32.1363
28.8341
26.9561
25.705
24.7439
23.9217
23.1654
22.4358
21.7092
20.9699
20.2084
19.4222
18.6162
17.7987
16.9791
16.1671
15.3714
14.5959
13.8402
13.1008
12.3735
11.6547
10.9414
10.2316
9.52394
8.81747
8.11167
7.40622
6.70092
5.99568
5.29043
4.58515
3.87982
3.17444
2.46903
1.76359
1.05813
0.352684
51.2011
37.7866
31.7138
28.6756
26.9148
25.7138
24.7705
23.9504
23.1886
22.4504
21.715
20.9691
20.2047
19.4198
18.6183
17.8069
16.9938
16.1872
15.3943
14.6189
13.861
13.1182
12.3874
11.6652
10.9491
10.237
9.5276
8.8199
8.11324
7.4072
6.70151
5.99602
5.29061
4.58523
3.87985
3.17445
2.46902
1.76358
1.05812
0.352676
48.3343
36.5964
31.2474
28.5213
26.8927
25.7436
24.8157
23.9942
23.2235
22.4741
21.7279
20.9738
20.2051
19.4201
18.6217
17.8153
17.0077
16.2058
15.4155
14.6401
13.8804
13.1346
12.4004
11.6751
10.9563
10.2421
9.53107
8.8222
8.11472
7.40812
6.70207
5.99633
5.29077
4.5853
3.87987
3.17444
2.46901
1.76356
1.05811
0.352671
45.0612
35.3112
30.7928
28.4063
26.91
25.8052
24.8844
24.0548
23.2707
22.5069
21.7481
20.9843
20.2099
19.4232
18.6262
17.823
17.0193
16.2209
15.4325
14.6573
13.896
13.1479
12.4111
11.6832
10.9622
10.2463
9.53394
8.8241
8.11593
7.40887
6.70251
5.99658
5.2909
4.58535
3.87988
3.17443
2.46899
1.76355
1.0581
0.35267
41.5598
34.0653
30.4322
28.3745
26.9866
25.9052
24.9767
24.1296
23.3265
22.5456
21.7727
20.9986
20.2177
19.428
18.6307
17.8291
17.0276
16.2312
15.4441
14.669
13.9068
13.1571
12.4184
11.6888
10.9663
10.2492
9.5359
8.82538
8.11675
7.40936
6.70279
5.99672
5.29096
4.58537
3.87987
3.17442
2.46897
1.76353
1.05809
0.352671
38.2012
33.0875
30.2734
28.4636
27.1268
26.0344
25.0795
24.2059
23.3804
22.5819
21.7958
21.0123
20.2254
19.4325
18.634
17.8325
17.0319
16.2364
15.4499
14.6748
13.9122
13.1617
12.4221
11.6916
10.9683
10.2505
9.53681
8.82596
8.11709
7.40956
6.70288
5.99676
5.29096
4.58536
3.87985
3.17439
2.46895
1.76352
1.05809
0.352675
35.8503
32.7278
30.3904
28.6451
27.2767
26.1418
25.1522
24.2537
23.4111
22.6011
21.8073
21.0189
20.2289
19.4342
18.6347
17.8327
17.032
16.2366
15.4501
14.6749
13.9123
13.1617
12.422
11.6914
10.9681
10.2503
9.5366
8.82577
8.11693
7.40942
6.70278
5.99668
5.2909
4.58531
3.87982
3.17437
2.46893
1.76351
1.05808
0.352677
33.4828
32.0488
30.3088
28.7295
27.3832
26.2308
25.2181
24.2999
23.4426
22.6221
21.8211
21.0278
20.2344
19.4373
18.6362
17.8331
17.0316
16.2357
15.4489
14.6738
13.9112
13.1608
12.4213
11.6909
10.9677
10.2501
9.53645
8.82568
8.11688
7.4094
6.70278
5.99669
5.29092
4.58533
3.87984
3.17439
2.46896
1.76353
1.0581
0.352681
34.1833
32.2412
30.2838
28.6533
27.3132
26.1794
25.1835
24.2773
23.4278
22.612
21.8138
21.0223
20.2304
19.4349
18.6354
17.8341
17.0342
16.2397
15.4539
14.6793
13.9167
13.1659
12.4258
11.6947
10.9708
10.2525
9.5383
8.82707
8.1179
7.41013
6.70329
5.99704
5.29116
4.58549
3.87995
3.17446
2.469
1.76356
1.05812
0.352686
35.5826
32.9153
30.5152
28.6868
27.2751
26.1242
25.1317
24.2352
23.3959
22.589
21.798
21.0118
20.2237
19.4306
18.6326
17.832
17.0325
16.2381
15.4525
14.6781
13.9158
13.1654
12.4257
11.6948
10.9711
10.2529
9.53868
8.82743
8.11822
7.41041
6.70352
5.99723
5.2913
4.5856
3.88003
3.17452
2.46905
1.76359
1.05813
0.352686
37.233
33.8243
30.9128
28.819
27.2879
26.0909
25.0865
24.1924
23.361
22.5632
21.7804
21.0007
20.2169
19.426
18.6285
17.8274
17.0269
16.2315
15.4453
14.671
13.9095
13.1601
12.4215
11.6917
10.9689
10.2514
9.53779
8.82691
8.11795
7.41029
6.7035
5.99725
5.29135
4.58566
3.88008
3.17457
2.46908
1.76361
1.05815
0.352688
38.8757
34.7941
31.3859
29.0138
27.344
26.0849
25.057
24.1585
23.3312
22.5407
21.7656
20.992
20.2121
19.4224
18.6243
17.8212
17.0183
16.2207
15.4333
14.659
13.8985
13.1508
12.4141
11.6861
10.9649
10.2486
9.53589
8.82569
8.1172
7.40986
6.70327
5.99715
5.29132
4.58567
3.88011
3.1746
2.46911
1.76364
1.05816
0.352694
40.3671
35.7121
31.863
29.2322
27.4259
26.1001
25.0435
24.1361
23.3097
22.5245
21.7557
20.9875
20.2104
19.4208
18.6206
17.8143
17.0076
16.2068
15.4177
14.6434
13.8842
13.1387
12.4044
11.6787
10.9595
10.2448
9.53331
8.82399
8.11613
7.40921
6.7029
5.99695
5.29124
4.58564
3.88012
3.17462
2.46914
1.76366
1.05818
0.352702
41.625
36.5071
32.293
29.4418
27.5147
26.1271
25.0418
24.1238
23.2964
22.5148
21.751
20.987
20.2117
19.421
18.6177
17.8073
16.9963
16.1918
15.4006
14.6263
13.8687
13.1255
12.3939
11.6707
10.9536
10.2406
9.53047
8.82211
8.11493
7.40847
6.70246
5.99672
5.29112
4.5856
3.88011
3.17464
2.46916
1.76368
1.05819
0.352711
42.6007
37.1343
32.6411
29.6182
27.5948
26.1564
25.0465
24.1186
23.2894
22.5101
21.7501
20.9891
20.2148
19.4225
18.6158
17.8013
16.986
16.1777
15.3845
14.6102
13.8541
13.1132
12.3841
11.6633
10.9481
10.2368
9.52783
8.82036
8.1138
7.40777
6.70205
5.99649
5.291
4.58555
3.8801
3.17464
2.46917
1.76369
1.05821
0.352721
43.2649
37.5658
32.8844
29.7445
27.6545
26.1804
25.0527
24.1173
23.2865
22.5086
21.751
20.992
20.2181
19.4241
18.6147
17.7968
16.9781
16.1669
15.3721
14.5978
13.8428
13.1038
12.3765
11.6575
10.944
10.2338
9.5258
8.81901
8.11293
7.40723
6.70173
5.9963
5.29091
4.58551
3.88009
3.17465
2.46918
1.76371
1.05822
0.352729
43.6008
37.7853
33.0092
29.8101
27.6863
26.1937
25.0567
24.1173
23.2856
22.5084
21.7519
20.9939
20.2201
19.4252
18.6142
17.7945
16.9739
16.161
15.3654
14.591
13.8367
13.0986
12.3725
11.6544
10.9417
10.2322
9.52471
8.81829
8.11247
7.40695
6.70156
5.99621
5.29086
4.58549
3.88008
3.17465
2.46919
1.76371
1.05822
0.352733
43.6008
37.7853
33.0092
29.8101
27.6863
26.1937
25.0567
24.1174
23.2857
22.5084
21.752
20.9939
20.2202
19.4253
18.6143
17.7945
16.9739
16.1611
15.3655
14.5911
13.8368
13.0987
12.3725
11.6545
10.9418
10.2323
9.52475
8.81832
8.11249
7.40696
6.70157
5.99622
5.29087
4.58549
3.88009
3.17465
2.46919
1.76371
1.05822
0.352732
43.265
37.5659
32.8844
29.7445
27.6545
26.1804
25.0527
24.1173
23.2866
22.5087
21.7511
20.9921
20.2182
19.4243
18.6149
17.797
16.9783
16.1671
15.3724
14.598
13.843
13.104
12.3767
11.6577
10.9441
10.2339
9.52589
8.81909
8.11299
7.40728
6.70176
5.99633
5.29093
4.58552
3.8801
3.17465
2.46919
1.76371
1.05822
0.352727
42.6008
37.1344
32.6411
29.6182
27.5948
26.1564
25.0465
24.1186
23.2895
22.5103
21.7502
20.9893
20.215
19.4228
18.6161
17.8016
16.9863
16.1781
15.3849
14.6106
13.8544
13.1136
12.3844
11.6635
10.9484
10.237
9.52798
8.82048
8.11389
7.40785
6.7021
5.99653
5.29103
4.58557
3.88011
3.17465
2.46918
1.76369
1.05821
0.352719
41.6251
36.5072
32.2931
29.4418
27.5147
26.1271
25.0419
24.1238
23.2965
22.5149
21.7512
20.9872
20.212
19.4214
18.6182
17.8078
16.9968
16.1922
15.4011
14.6267
13.8691
13.1259
12.3942
11.671
10.9539
10.2409
9.53067
8.82227
8.11505
7.40857
6.70254
5.99677
5.29116
4.58562
3.88013
3.17465
2.46916
1.76368
1.05819
0.352708
40.3672
35.7122
31.8631
29.2323
27.4259
26.1001
25.0436
24.1362
23.3099
22.5247
21.756
20.9878
20.2107
19.4212
18.621
17.8148
17.0081
16.2074
15.4182
14.6439
13.8847
13.1392
12.4048
11.6791
10.9598
10.2451
9.53354
8.82418
8.11628
7.40933
6.70298
5.99702
5.29128
4.58567
3.88014
3.17463
2.46914
1.76366
1.05818
0.352698
38.8758
34.7942
31.3859
29.0138
27.3441
26.0849
25.0571
24.1586
23.3314
22.5409
21.7658
20.9924
20.2125
19.4229
18.6248
17.8218
17.0188
16.2213
15.4339
14.6596
13.899
13.1513
12.4145
11.6865
10.9652
10.2489
9.53614
8.82589
8.11736
7.40998
6.70336
5.99722
5.29137
4.5857
3.88013
3.17461
2.46912
1.76363
1.05816
0.352689
37.2331
33.8243
30.9128
28.819
27.2879
26.091
25.0865
24.1925
23.3612
22.5634
21.7807
21.001
20.2173
19.4264
18.6291
17.828
17.0275
16.2321
15.446
14.6716
13.9101
13.1607
12.422
11.6922
10.9693
10.2518
9.53805
8.82712
8.11812
7.41042
6.70359
5.99732
5.2914
4.58569
3.8801
3.17457
2.46908
1.76361
1.05814
0.352684
35.5826
32.9152
30.5152
28.6868
27.2751
26.1242
25.1318
24.2353
23.396
22.5892
21.7983
21.0122
20.2241
19.4311
18.6331
17.8326
17.0331
16.2388
15.4532
14.6787
13.9164
13.166
12.4262
11.6953
10.9715
10.2532
9.53894
8.82764
8.11839
7.41053
6.70361
5.99729
5.29134
4.58563
3.88004
3.17452
2.46904
1.76358
1.05813
0.352681
34.1831
32.2411
30.2837
28.6533
27.3132
26.1794
25.1836
24.2774
23.4279
22.6122
21.8141
21.0226
20.2308
19.4354
18.636
17.8347
17.0349
16.2404
15.4546
14.6799
13.9173
13.1665
12.4263
11.6951
10.9712
10.2528
9.53856
8.82727
8.11805
7.41025
6.70337
5.9971
5.2912
4.58551
3.87995
3.17446
2.469
1.76355
1.05811
0.35268
33.4824
32.0485
30.3087
28.7294
27.3831
26.2308
25.2181
24.3
23.4427
22.6223
21.8214
21.0281
20.2348
19.4378
18.6368
17.8337
17.0322
16.2363
15.4495
14.6744
13.9118
13.1613
12.4218
11.6913
10.9681
10.2504
9.53669
8.82586
8.11702
7.4095
6.70285
5.99673
5.29094
4.58534
3.87984
3.17439
2.46895
1.76351
1.05809
0.352673
31.5596
30.8973
29.7559
28.5076
27.3184
26.2325
25.2438
24.3313
23.4726
22.6484
21.8434
21.0461
20.2489
19.4479
18.6429
17.8361
17.0313
16.2328
15.4444
14.6686
13.9061
13.1563
12.4176
11.688
10.9656
10.2486
9.53543
8.82501
8.11646
7.40915
6.70264
5.99662
5.29089
4.58533
3.87985
3.1744
2.46897
1.76354
1.0581
0.352676
31.6902
30.9249
29.7093
28.443
27.2624
26.1916
25.2161
24.3127
23.4594
22.6381
21.8345
21.0382
20.2424
19.4435
18.6413
17.8378
17.0362
16.2404
15.4539
14.6789
13.9162
13.1656
12.4257
11.6948
10.971
10.2528
9.53862
8.82737
8.11818
7.41037
6.70349
5.9972
5.29129
4.58559
3.88002
3.17452
2.46904
1.76358
1.05813
0.352686
32.2071
31.2627
29.864
28.4875
27.2553
26.1657
25.1868
24.2863
23.4377
22.621
21.8215
21.0286
20.2355
19.4388
18.6385
17.8366
17.0364
16.2417
15.456
14.6815
13.9192
13.1687
12.4286
11.6974
10.9733
10.2547
9.54018
8.8286
8.11913
7.41109
6.70403
5.9976
5.29157
4.58579
3.88016
3.17462
2.46911
1.76363
1.05816
0.352689
32.9397
31.7823
30.1508
28.6157
27.295
26.1625
25.1666
24.262
23.4154
22.6032
21.8086
21.0199
20.2297
19.4347
18.635
17.8331
17.0326
16.2375
15.4516
14.6776
13.916
13.1663
12.4271
11.6966
10.9729
10.2547
9.54031
8.82884
8.1194
7.41137
6.70428
5.99781
5.29175
4.58593
3.88027
3.1747
2.46917
1.76367
1.05818
0.352695
33.7391
32.3743
30.5038
28.7952
27.3698
26.1814
25.1592
24.245
23.3976
22.5887
21.7988
21.0143
20.2266
19.4319
18.6312
17.8278
17.0254
16.2284
15.4418
14.6681
13.9078
13.1596
12.422
11.6929
10.9704
10.253
9.53932
8.82829
8.11913
7.41127
6.70428
5.99787
5.29183
4.58602
3.88035
3.17476
2.46922
1.76371
1.0582
0.352704
34.5047
32.9579
30.8682
28.9937
27.4635
26.2158
25.1635
24.2366
23.3863
22.5794
21.7935
21.0127
20.2266
19.4308
18.6278
17.8215
17.0158
16.2159
15.4279
14.6547
13.896
13.15
12.4145
11.6873
10.9665
10.2503
9.53755
8.82718
8.11848
7.41092
6.70412
5.99782
5.29184
4.58606
3.8804
3.17481
2.46927
1.76374
1.05823
0.352716
35.1724
33.4769
31.2021
29.1837
27.5597
26.257
25.1754
24.2352
23.3809
22.5752
21.7926
21.0149
20.2297
19.4314
18.6249
17.815
17.0054
16.2016
15.412
14.6394
13.8825
13.139
12.4059
11.6809
10.9619
10.2471
9.53543
8.82582
8.11764
7.41043
6.70386
5.9977
5.2918
4.58607
3.88043
3.17485
2.4693
1.76377
1.05825
0.35273
35.7013
33.8936
31.4756
29.3439
27.6444
26.2964
25.1899
24.2379
23.3797
22.5746
21.7945
21.0192
20.2343
19.4327
18.6226
17.8092
16.9958
16.1879
15.3967
14.6247
13.8698
13.1285
12.3978
11.6749
10.9575
10.2441
9.53337
8.82448
8.11681
7.40993
6.70358
5.99756
5.29175
4.58606
3.88045
3.17488
2.46933
1.7638
1.05827
0.352744
36.0661
34.1834
31.6684
29.4588
27.7069
26.3268
25.2025
24.2418
23.3805
22.5756
21.7973
21.0236
20.2384
19.4341
18.6209
17.8048
16.9884
16.1773
15.3848
14.6133
13.8598
13.1204
12.3915
11.6701
10.9541
10.2417
9.53177
8.82343
8.11615
7.40954
6.70336
5.99745
5.2917
4.58605
3.88046
3.17489
2.46935
1.76381
1.05828
0.352755
36.2519
34.3317
31.7677
29.5186
27.7399
26.3433
25.2097
24.2444
23.3815
22.5767
21.7992
21.0262
20.2409
19.435
18.6201
17.8024
16.9843
16.1716
15.3784
14.6071
13.8544
13.116
12.3881
11.6676
10.9523
10.2404
9.5309
8.82287
8.11579
7.40933
6.70324
5.99739
5.29167
4.58604
3.88046
3.1749
2.46936
1.76382
1.05829
0.35276
36.2519
34.3317
31.7677
29.5186
27.7399
26.3433
25.2097
24.2444
23.3815
22.5767
21.7992
21.0263
20.2409
19.435
18.6202
17.8025
16.9844
16.1716
15.3784
14.6071
13.8544
13.116
12.3881
11.6676
10.9523
10.2405
9.53093
8.82289
8.11581
7.40934
6.70325
5.99739
5.29168
4.58605
3.88046
3.1749
2.46936
1.76382
1.05829
0.35276
36.0662
34.1834
31.6684
29.4588
27.7069
26.3268
25.2025
24.2418
23.3806
22.5757
21.7974
21.0237
20.2386
19.4343
18.6211
17.805
16.9886
16.1775
15.3851
14.6135
13.86
13.1206
12.3917
11.6703
10.9542
10.2418
9.53186
8.8235
8.1162
7.40958
6.70339
5.99747
5.29172
4.58606
3.88046
3.1749
2.46935
1.76381
1.05828
0.352753
35.7014
33.8937
31.4757
29.3439
27.6445
26.2964
25.19
24.238
23.3798
22.5747
21.7946
21.0194
20.2345
19.433
18.6229
17.8095
16.9961
16.1882
15.3971
14.6251
13.8701
13.1288
12.3981
11.6751
10.9577
10.2443
9.53351
8.82459
8.1169
7.41001
6.70364
5.9976
5.29178
4.58608
3.88046
3.17488
2.46933
1.7638
1.05827
0.352741
35.1725
33.477
31.2022
29.1838
27.5597
26.257
25.1755
24.2352
23.381
22.5753
21.7928
21.0151
20.23
19.4317
18.6253
17.8155
17.0059
16.202
15.4125
14.6398
13.883
13.1394
12.4063
11.6812
10.9622
10.2474
9.53561
8.82597
8.11776
7.41053
6.70393
5.99775
5.29184
4.58609
3.88045
3.17486
2.46931
1.76377
1.05825
0.352726
34.5048
32.958
30.8682
28.9937
27.4635
26.2159
25.1636
24.2367
23.3864
22.5796
21.7937
21.013
20.227
19.4312
18.6283
17.822
17.0163
16.2164
15.4285
14.6552
13.8965
13.1504
12.4149
11.6877
10.9668
10.2506
9.53777
8.82736
8.11862
7.41103
6.7042
5.99788
5.29188
4.58609
3.88042
3.17482
2.46927
1.76374
1.05822
0.352711
33.7391
32.3744
30.5039
28.7952
27.3698
26.1815
25.1593
24.2451
23.3977
22.5889
21.799
21.0146
20.227
19.4323
18.6318
17.8283
17.0259
16.229
15.4424
14.6687
13.9083
13.1602
12.4225
11.6933
10.9708
10.2533
9.53956
8.82848
8.11929
7.41139
6.70437
5.99793
5.29187
4.58605
3.88037
3.17477
2.46923
1.76371
1.0582
0.352698
32.9397
31.7823
30.1508
28.6157
27.295
26.1626
25.1666
24.2621
23.4155
22.6034
21.8088
21.0202
20.2302
19.4351
18.6355
17.8337
17.0332
16.2381
15.4522
14.6782
13.9166
13.1669
12.4276
11.697
10.9733
10.255
9.54057
8.82905
8.11956
7.41149
6.70437
5.99787
5.29179
4.58596
3.88029
3.1747
2.46917
1.76367
1.05817
0.352689
32.207
31.2626
29.8639
28.4875
27.2553
26.1657
25.1869
24.2864
23.4378
22.6212
21.8218
21.029
20.2359
19.4393
18.6391
17.8372
17.037
16.2424
15.4566
14.6822
13.9198
13.1692
12.4291
11.6979
10.9737
10.255
9.54043
8.82881
8.11928
7.41121
6.70411
5.99766
5.29161
4.58582
3.88017
3.17462
2.46911
1.76362
1.05815
0.352683
31.6901
30.9247
29.7092
28.4429
27.2624
26.1916
25.2161
24.3128
23.4595
22.6383
21.8348
21.0386
20.2428
19.444
18.6419
17.8383
17.0368
16.2411
15.4545
14.6795
13.9168
13.1662
12.4262
11.6952
10.9714
10.2531
9.53886
8.82756
8.11832
7.41048
6.70357
5.99725
5.29132
4.58561
3.88002
3.17451
2.46903
1.76357
1.05812
0.352678
31.5593
30.897
29.7557
28.5075
27.3184
26.2325
25.2439
24.3314
23.4727
22.6486
21.8437
21.0465
20.2493
19.4484
18.6434
17.8367
17.0319
16.2334
15.4451
14.6692
13.9067
13.1568
12.418
11.6884
10.966
10.2489
9.53565
8.82518
8.11659
7.40924
6.7027
5.99665
5.29091
4.58533
3.87984
3.17439
2.46895
1.76352
1.05808
0.352666
30.1376
29.7846
29.0387
28.0978
27.1059
26.1345
25.2082
24.3281
23.4855
22.6687
21.8663
21.0686
20.2686
19.4632
18.6527
17.8401
17.0299
16.227
15.4358
14.6587
13.8964
13.1477
12.4105
11.6826
10.9616
10.2457
9.53343
8.82368
8.1156
7.40861
6.70232
5.99644
5.2908
4.58529
3.87984
3.17441
2.46898
1.76354
1.0581
0.352672
30.0979
29.7472
28.9801
28.0356
27.0529
26.0942
25.1791
24.3069
23.4688
22.6541
21.8527
21.0559
20.2579
19.4557
18.6495
17.8419
17.0367
16.238
15.4495
14.6736
13.911
13.161
12.4219
11.6919
10.969
10.2514
9.53773
8.82684
8.11788
7.41023
6.70344
5.99721
5.29132
4.58563
3.88006
3.17455
2.46907
1.76361
1.05814
0.352687
30.2438
29.8833
29.0556
28.0606
27.0486
26.077
25.1581
24.2865
23.4506
22.6387
21.8399
21.0457
20.25
19.4501
18.6463
17.8413
17.0383
16.2414
15.4543
14.6793
13.9171
13.167
12.4275
11.6968
10.9731
10.2547
9.54032
8.82883
8.11938
7.41134
6.70426
5.99779
5.29173
4.58592
3.88026