# vtk DataFile Version 2.0
I need something to put here
ASCII

DATASET STRUCTURED_GRID
DIMENSIONS 41 21 21
POINTS 18081 float
0.000000 0.000000 0.000000
0.100000 0.000000 0.000000
0.200000 0.000000 0.000000
0.300000 0.000000 0.000000
0.400000 0.000000 0.000000
0.500000 0.000000 0.000000
0.600000 0.000000 0.000000
0.700000 0.000000 0.000000
0.800000 0.000000 0.000000
0.900000 0.000000 0.000000
1.000000 0.000000 0.000000
1.100000 0.000000 0.000000
1.200000 0.000000 0.000000
1.300000 0.000000 0.000000
1.400000 0.000000 0.000000
1.500000 0.000000 0.000000
1.600000 0.000000 0.000000
1.700000 0.000000 0.000000
1.800000 0.000000 0.000000
1.900000 0.000000 0.000000
2.000000 0.000000 0.000000
2.100000 0.000000 0.000000
2.200000 0.000000 0.000000
2.300000 0.000000 0.000000
2.400000 0.000000 0.000000
2.500000 0.000000 0.000000
2.600000 0.000000 0.000000
2.700000 0.000000 0.000000
2.800000 0.000000 0.000000
2.900000 0.000000 0.000000
3.000000 0.000000 0.000000
3.100000 0.000000 0.000000
3.200000 0.000000 0.000000
3.300000 0.000000 0.000000
3.400000 0.000000 0.000000
3.500000 0.000000 0.000000
3.600000 0.000000 0.000000
3.700000 0.000000 0.000000
3.800000 0.000000 0.000000
3.900000 0.000000 0.000000
4.000000 0.000000 0.000000
0.000000 0.100000 0.000000
0.100000 0.100000 0.000000
0.200000 0.100000 0.000000
0.300000 0.100000 0.000000
0.400000 0.100000 0.000000
0.500000 0.100000 0.000000
0.600000 0.100000 0.000000
0.700000 0.100000 0.000000
0.800000 0.100000 0.000000
0.900000 0.100000 0.000000
1.000000 0.100000 0.000000
1.100000 0.100000 0.000000
1.200000 0.100000 0.000000
1.300000 0.100000 0.000000
1.400000 0.100000 0.000000
1.500000 0.100000 0.000000
1.600000 0.100000 0.000000
1.700000 0.100000 0.000000
1.800000 0.100000 0.000000
1.900000 0.100000 0.000000
2.000000 0.100000 0.000000
2.100000 0.100000 0.000000
2.200000 0.100000 0.000000
2.300000 0.100000 0.000000
2.400000 0.100000 0.000000
2.500000 0.100000 0.000000
2.600000 0.100000 0.000000
2.700000 0.100000 0.000000
2.800000 0.100000 0.000000
2.900000 0.100000 0.000000
3.000000 0.100000 0.000000
3.100000 0.100000 0.000000
3.200000 0.100000 0.000000
3.300000 0.100000 0.000000
3.400000 0.100000 0.000000
3.500000 0.100000 0.000000
3.600000 0.100000 0.000000
3.700000 0.100000 0.000000
3.800000 0.100000 0.000000
3.900000 0.100000 0.000000
4.000000 0.100000 0.000000
0.000000 0.200000 0.000000
0.100000 0.200000 0.000000
0.200000 0.200000 0.000000
0.300000 0.200000 0.000000
0.400000 0.200000 0.000000
0.500000 0.200000 0.000000
0.600000 0.200000 0.000000
0.700000 0.200000 0.000000
0.800000 0.200000 0.000000
0.900000 0.200000 0.000000
1.000000 0.200000 0.000000
1.100000 0.200000 0.000000
1.200000 0.200000 0.000000
1.300000 0.200000 0.000000
1.400000 0.200000 0.000000
1.500000 0.200000 0.000000
1.600000 0.200000 0.000000
1.700000 0.200000 0.000000
1.800000 0.200000 0.000000
1.900000 0.200000 0.000000
2.000000 0.200000 0.000000
2.100000 0.200000 0.000000
2.200000 0.200000 0.000000
2.300000 0.200000 0.000000
2.400000 0.200000 0.000000
2.500000 0.200000 0.000000
2.600000 0.200000 0.000000
2.700000 0.200000 0.000000
2.800000 0.200000 0.000000
2.900000 0.200000 0.000000
3.000000 0.200000 0.000000
3.100000 0.200000 0.000000
3.200000 0.200000 0.000000
3.300000 0.200000 0.000000
3.400000 0.200000 0.000000
3.500000 0.200000 0.000000
3.600000 0.200000 0.000000
3.700000 0.200000 0.000000
3.800000 0.200000 0.000000
3.900000 0.200000 0.000000
4.000000 0.200000 0.000000
0.000000 0.300000 0.000000
0.100000 0.300000 0.000000
0.200000 0.300000 0.000000
0.300000 0.300000 0.000000
0.400000 0.300000 0.000000
0.500000 0.300000 0.000000
0.600000 0.300000 0.000000
0.700000 0.300000 0.000000
0.800000 0.300000 0.000000
0.900000 0.300000 0.000000
1.000000 0.300000 0.000000
1.100000 0.300000 0.000000
1.200000 0.300000 0.000000
1.300000 0.300000 0.000000
1.400000 0.300000 0.000000
1.500000 0.300000 0.000000
1.600000 0.300000 0.000000
1.700000 0.300000 0.000000
1.800000 0.300000 0.000000
1.900000 0.300000 0.000000
2.000000 0.300000 0.000000
2.100000 0.300000 0.000000
2.200000 0.300000 0.000000
2.300000 0.300000 0.000000
2.400000 0.300000 0.000000
2.500000 0.300000 0.000000
2.600000 0.300000 0.000000
2.700000 0.300000 0.000000
2.800000 0.300000 0.000000
2.900000 0.300000 0.000000
3.000000 0.300000 0.000000
3.100000 0.300000 0.000000
3.200000 0.300000 0.000000
3.300000 0.300000 0.000000
3.400000 0.300000 0.000000
3.500000 0.300000 0.000000
3.600000 0.300000 0.000000
3.700000 0.300000 0.000000
3.800000 0.300000 0.000000
3.900000 0.300000 0.000000
4.000000 0.300000 0.000000
0.000000 0.400000 0.000000
0.100000 0.400000 0.000000
0.200000 0.400000 0.000000
0.300000 0.400000 0.000000
0.400000 0.400000 0.000000
0.500000 0.400000 0.000000
0.600000 0.400000 0.000000
0.700000 0.400000 0.000000
0.800000 0.400000 0.000000
0.900000 0.400000 0.000000
1.000000 0.400000 0.000000
1.100000 0.400000 0.000000
1.200000 0.400000 0.000000
1.300000 0.400000 0.000000
1.400000 0.400000 0.000000
1.500000 0.400000 0.000000
1.600000 0.400000 0.000000
1.700000 0.400000 0.000000
1.800000 0.400000 0.000000
1.900000 0.400000 0.000000
2.000000 0.400000 0.000000
2.100000 0.400000 0.000000
2.200000 0.400000 0.000000
2.300000 0.400000 0.000000
2.400000 0.400000 0.000000
2.500000 0.400000 0.000000
2.600000 0.400000 0.000000
2.700000 0.400000 0.000000
2.800000 0.400000 0.000000
2.900000 0.400000 0.000000
3.000000 0.400000 0.000000
3.100000 0.400000 0.000000
3.200000 0.400000 0.000000
3.300000 0.400000 0.000000
3.400000 0.400000 0.000000
3.500000 0.400000 0.000000
3.600000 0.400000 0.000000
3.700000 0.400000 0.000000
3.800000 0.400000 0.000000
3.900000 0.400000 0.000000
4.000000 0.400000 0.000000
0.000000 0.500000 0.000000
0.100000 0.500000 0.000000
0.200000 0.500000 0.000000
0.300000 0.500000 0.000000
0.400000 0.500000 0.000000
0.500000 0.500000 0.000000
0.600000 0.500000 0.000000
0.700000 0.500000 0.000000
0.800000 0.500000 0.000000
0.900000 0.500000 0.000000
1.000000 0.500000 0.000000
1.100000 0.500000 0.000000
1.200000 0.500000 0.000000
1.300000 0.500000 0.000000
1.400000 0.500000 0.000000
1.500000 0.500000 0.000000
1.600000 0.500000 0.000000
1.700000 0.500000 0.000000
1.800000 0.500000 0.000000
1.900000 0.500000 0.000000
2.000000 0.500000 0.000000
2.100000 0.500000 0.000000
2.200000 0.500000 0.000000
2.300000 0.500000 0.000000
2.400000 0.500000 0.000000
2.500000 0.500000 0.000000
2.600000 0.500000 0.000000
2.700000 0.500000 0.000000
2.800000 0.500000 0.000000
2.900000 0.500000 0.000000
3.000000 0.500000 0.000000
3.100000 0.500000 0.000000
3.200000 0.500000 0.000000
3.300000 0.500000 0.000000
3.400000 0.500000 0.000000
3.500000 0.500000 0.000000
3.600000 0.500000 0.000000
3.700000 0.500000 0.000000
3.800000 0.500000 0.000000
3.900000 0.500000 0.000000
4.000000 0.500000 0.000000
0.000000 0.600000 0.000000
0.100000 0.600000 0.000000
0.200000 0.600000 0.000000
0.300000 0.600000 0.000000
0.400000 0.600000 0.000000
0.500000 0.600000 0.000000
0.600000 0.600000 0.000000
0.700000 0.600000 0.000000
0.800000 0.600000 0.000000
0.900000 0.600000 0.000000
1.000000 0.600000 0.000000
1.100000 0.600000 0.000000
1.200000 0.600000 0.000000
1.300000 0.600000 0.000000
1.400000 0.600000 0.000000
1.500000 0.600000 0.000000
1.600000 0.600000 0.000000
1.700000 0.600000 0.000000
1.800000 0.600000 0.000000
1.900000 0.600000 0.000000
2.000000 0.600000 0.000000
2.100000 0.600000 0.000000
2.200000 0.600000 0.000000
2.300000 0.600000 0.000000
2.400000 0.600000 0.000000
2.500000 0.600000 0.000000
2.600000 0.600000 0.000000
2.700000 0.600000 0.000000
2.800000 0.600000 0.000000
2.900000 0.600000 0.000000
3.000000 0.600000 0.000000
3.100000 0.600000 0.000000
3.200000 0.600000 0.000000
3.300000 0.600000 0.000000
3.400000 0.600000 0.000000
3.500000 0.600000 0.000000
3.600000 0.600000 0.000000
3.700000 0.600000 0.000000
3.800000 0.600000 0.000000
3.900000 0.600000 0.000000
4.000000 0.600000 0.000000
0.000000 0.700000 0.000000
0.100000 0.700000 0.000000
0.200000 0.700000 0.000000
0.300000 0.700000 0.000000
0.400000 0.700000 0.000000
0.500000 0.700000 0.000000
0.600000 0.700000 0.000000
0.700000 0.700000 0.000000
0.800000 0.700000 0.000000
0.900000 0.700000 0.000000
1.000000 0.700000 0.000000
1.100000 0.700000 0.000000
1.200000 0.700000 0.000000
1.300000 0.700000 0.000000
1.400000 0.700000 0.000000
1.500000 0.700000 0.000000
1.600000 0.700000 0.000000
1.700000 0.700000 0.000000
1.800000 0.700000 0.000000
1.900000 0.700000 0.000000
2.000000 0.700000 0.000000
2.100000 0.700000 0.000000
2.200000 0.700000 0.000000
2.300000 0.700000 0.000000
2.400000 0.700000 0.000000
2.500000 0.700000 0.000000
2.600000 0.700000 0.000000
2.700000 0.700000 0.000000
2.800000 0.700000 0.000000
2.900000 0.700000 0.000000
3.000000 0.700000 0.000000
3.100000 0.700000 0.000000
3.200000 0.700000 0.000000
3.300000 0.700000 0.000000
3.400000 0.700000 0.000000
3.500000 0.700000 0.000000
3.600000 0.700000 0.000000
3.700000 0.700000 0.000000
3.800000 0.700000 0.000000
3.900000 0.700000 0.000000
4.000000 0.700000 0.000000
0.000000 0.800000 0.000000
0.100000 0.800000 0.000000
0.200000 0.800000 0.000000
0.300000 0.800000 0.000000
0.400000 0.800000 0.000000
0.500000 0.800000 0.000000
0.600000 0.800000 0.000000
0.700000 0.800000 0.000000
0.800000 0.800000 0.000000
0.900000 0.800000 0.000000
1.000000 0.800000 0.000000
1.100000 0.800000 0.000000
1.200000 0.800000 0.000000
1.300000 0.800000 0.000000
1.400000 0.800000 0.000000
1.500000 0.800000 0.000000
1.600000 0.800000 0.000000
1.700000 0.800000 0.000000
1.800000 0.800000 0.000000
1.900000 0.800000 0.000000
2.000000 0.800000 0.000000
2.100000 0.800000 0.000000
2.200000 0.800000 0.000000
2.300000 0.800000 0.000000
2.400000 0.800000 0.000000
2.500000 0.800000 0.000000
2.600000 0.800000 0.000000
2.700000 0.800000 0.000000
2.800000 0.800000 0.000000
2.900000 0.800000 0.000000
3.000000 0.800000 0.000000
3.100000 0.800000 0.000000
3.200000 0.800000 0.000000
3.300000 0.800000 0.000000
3.400000 0.800000 0.000000
3.500000 0.800000 0.000000
3.600000 0.800000 0.000000
[...]
CELL_DATA 16000
SCALARS pressure float 1
LOOKUP_TABLE default
37.1254
34.0036
31.6663
29.9194
28.5468
27.4038
26.4011
25.4824
24.6108
23.7607
22.9142
22.0591
21.1888
20.302
19.4016
18.4942
17.5882
16.6922
15.8136
14.9577
14.1269
13.321
12.5378
11.7741
11.0262
10.2907
9.56444
8.84494
8.13019
7.41872
6.70944
6.00157
5.2946
4.58817
3.88204
3.17608
2.47019
1.76436
1.05855
0.3528
39.4757
34.3631
31.5492
29.7378
28.3967
27.2963
26.3283
25.4346
24.5802
23.7418
22.903
22.053
21.1858
20.3006
19.401
18.4939
17.5878
16.6917
15.813
14.9572
14.1265
13.3208
12.5378
11.7742
11.0265
10.291
9.56477
8.84525
8.13047
7.41896
6.70964
6.00173
5.29472
4.58826
3.88211
3.17613
2.47023
1.76438
1.05856
0.352791
42.8342
35.341
31.7085
29.6496
28.2578
27.169
26.2281
25.3618
24.5309
23.711
22.886
22.0453
21.1833
20.2999
19.3995
18.4901
17.5812
16.6824
15.802
14.9456
14.1154
13.311
12.5298
11.768
11.0218
10.2877
9.56247
8.84372
8.12949
7.41836
6.70929
6.00155
5.29464
4.58823
3.88211
3.17615
2.47025
1.76439
1.05856
0.352775
46.3363
36.588
32.0705
29.6834
28.184
27.0729
26.1411
25.2941
24.484
23.6829
22.8729
22.0424
21.1854
20.3021
19.3983
18.4833
17.5682
16.6641
15.7803
14.9229
14.0939
13.2921
12.5141
11.7557
11.0126
10.281
9.55776
8.84051
8.12737
7.41701
6.70846
6.00106
5.29437
4.5881
3.88206
3.17614
2.47026
1.7644
1.05856
0.352762
49.6113
37.8752
32.5276
29.8016
28.1711
27.0172
26.0803
25.2438
24.4499
23.6655
22.8697
22.0485
21.1949
20.309
19.3983
18.4741
17.5495
16.6373
15.7484
14.8897
14.0626
13.2647
12.4916
11.7381
10.9993
10.2714
9.55101
8.8359
8.12431
7.41503
6.70722
6.00032
5.29395
4.58788
3.88196
3.1761
2.47025
1.7644
1.05856
0.352758
52.481
39.0683
32.9973
29.96
28.1986
26.9946
26.0449
25.2129
24.4311
23.661
22.8777
22.0647
21.2125
20.3211
19.4002
18.4636
17.5265
16.6039
15.7087
14.8484
14.0239
13.2312
12.4642
11.7167
10.9834
10.2598
9.5429
8.83036
8.12062
7.41264
6.70572
5.99941
5.29343
4.5876
3.88182
3.17604
2.47024
1.76441
1.05857
0.352762
54.8502
40.088
33.4235
30.1231
28.2458
26.9939
26.029
25.1982
24.4254
23.6671
22.8948
22.0883
21.2357
20.3369
19.4038
18.453
17.5018
16.5674
15.6653
14.8037
13.9822
13.1953
12.435
11.6942
10.9665
10.2477
9.5344
8.82456
8.11677
7.41015
6.70415
5.99846
5.29287
4.5873
3.88167
3.17598
2.47023
1.76441
1.05858
0.352772
56.6636
40.8858
33.7696
30.2653
28.2957
27.0039
26.0252
25.1941
24.428
23.6793
22.9157
22.1143
21.2603
20.3534
19.408
18.4434
17.4787
16.5331
15.6244
14.7616
13.9433
13.1619
12.4081
11.6734
10.9511
10.2366
9.52665
8.81928
8.11326
7.40788
6.70273
5.99759
5.29237
4.58702
3.88154
3.17593
2.47021
1.76442
1.05859
0.352784
57.8881
41.4319
34.012
30.369
28.3356
27.0157
26.0268
25.1952
24.4337
23.6916
22.9343
22.1362
21.2807
20.3671
19.4118
18.4362
17.4608
16.5064
15.5926
14.7289
13.9131
13.1361
12.3873
11.6574
10.9393
10.2282
9.52076
8.81528
8.11061
7.40617
6.70165
5.99694
5.29199
4.58681
3.88143
3.17588
2.4702
1.76443
1.0586
0.352795
58.5047
41.7089
34.1365
30.4235
28.3576
27.0232
26.029
25.197
24.4378
23.6991
22.9451
22.1488
21.2923
20.3749
19.4141
18.4323
17.4511
16.4919
15.5753
14.7112
13.8967
13.1221
12.3761
11.6488
10.933
10.2236
9.51761
8.81314
8.1092
7.40526
6.70109
5.9966
5.29179
4.58671
3.88138
3.17586
2.4702
1.76443
1.05861
0.3528
58.5047
41.7089
34.1365
30.4235
28.3576
27.0232
26.029
25.197
24.4378
23.6992
22.9452
22.1489
21.2924
20.375
19.4143
18.4325
17.4513
16.492
15.5755
14.7113
13.8968
13.1223
12.3762
11.649
10.9331
10.2237
9.51767
8.81319
8.10924
7.40529
6.70111
5.99661
5.29181
4.58671
3.88138
3.17586
2.4702
1.76443
1.05861
0.3528
57.8882
41.4319
34.012
30.3691
28.3357
27.0157
26.0269
25.1953
24.4338
23.6917
22.9345
22.1365
21.2811
20.3675
19.4123
18.4367
17.4613
16.5069
15.5932
14.7295
13.9136
13.1365
12.3877
11.6578
10.9396
10.2284
9.52095
8.81543
8.11073
7.40626
6.70172
5.99699
5.29203
4.58684
3.88145
3.17589
2.47021
1.76443
1.0586
0.352792
56.6637
40.8858
33.7697
30.2654
28.2957
27.004
26.0253
25.1943
24.4282
23.6795
22.9161
22.1148
21.2609
20.3542
19.4088
18.4442
17.4795
16.5339
15.6253
14.7624
13.944
13.1626
12.4087
11.6739
10.9516
10.237
9.52696
8.81953
8.11346
7.40803
6.70284
5.99767
5.29243
4.58706
3.88156
3.17594
2.47022
1.76442
1.05859
0.35278
54.8503
40.0881
33.4236
30.1232
28.2459
26.994
26.0291
25.1984
24.4256
23.6675
22.8953
22.089
21.2366
20.3379
19.4048
18.454
17.5029
16.5685
15.6664
14.8047
13.9832
13.1961
12.4358
11.6948
10.9671
10.2482
9.5348
8.82488
8.11702
7.41034
6.7043
5.99856
5.29295
4.58734
3.8817
3.176
2.47023
1.76441
1.05857
0.352766
52.4811
39.0684
32.9974
29.9601
28.1987
26.9948
26.0451
25.2132
24.4314
23.6614
22.8783
22.0654
21.2134
20.3222
19.4014
18.4649
17.5278
16.6051
15.7099
14.8496
14.025
13.2322
12.4651
11.7175
10.984
10.2604
9.54336
8.83073
8.12091
7.41287
6.70589
5.99953
5.29351
4.58765
3.88185
3.17606
2.47025
1.76441
1.05856
0.352755
49.6114
37.8753
32.5277
29.8017
28.1712
27.0173
26.0805
25.2441
24.4502
23.666
22.8703
22.0493
21.1959
20.3102
19.3995
18.4754
17.5508
16.6386
15.7497
14.8909
14.0637
13.2658
12.4926
11.7389
11.0001
10.272
9.55151
8.8363
8.12462
7.41527
6.7074
6.00044
5.29403
4.58793
3.88199
3.17611
2.47026
1.7644
1.05855
0.35275
46.3364
36.5881
32.0706
29.6835
28.1841
27.0731
26.1413
25.2944
24.4844
23.6834
22.8736
22.0432
21.1864
20.3032
19.3995
18.4846
17.5696
16.6655
15.7816
14.9241
14.0951
13.2932
12.5151
11.7566
11.0133
10.2816
9.55827
8.84092
8.12769
7.41725
6.70863
6.00118
5.29445
4.58815
3.88209
3.17614
2.47026
1.76439
1.05854
0.352753
42.8342
35.3411
31.7086
29.6496
28.2579
27.1692
26.2283
25.3621
24.5313
23.7115
22.8867
22.0461
21.1843
20.301
19.4008
18.4914
17.5825
16.6837
15.8033
14.9469
14.1167
13.3122
12.5308
11.7688
11.0226
10.2883
9.56298
8.84412
8.1298
7.41859
6.70946
6.00166
5.29471
4.58828
3.88213
3.17615
2.47024
1.76438
1.05854
0.352765
39.4757
34.363
31.5492
29.7379
28.3968
27.2965
26.3285
25.4349
24.5806
23.7424
22.9037
22.0538
21.1868
20.3017
19.4022
18.4952
17.5891
16.693
15.8143
14.9584
14.1277
13.3218
12.5387
11.7751
11.0272
10.2916
9.56526
8.84563
8.13077
7.41918
6.70979
6.00183
5.29479
4.58829
3.88212
3.17612
2.47022
1.76436
1.05854
0.352781
37.1252
34.0035
31.6663
29.9194
28.5469
27.404
26.4013
25.4827
24.6112
23.7613
22.9149
22.0599
21.1898
20.3031
19.4028
18.4955
17.5895
16.6935
15.8149
14.959
14.1281
13.322
12.5387
11.7749
11.0269
10.2913
9.5649
8.8453
8.13047
7.41892
6.70958
6.00167
5.29465
4.58819
3.88204
3.17607
2.47018
1.76433
1.05853
0.352788
34.7572
33.3243
31.5845
30.0037
28.6531
27.4927
26.4669
25.5287
24.6426
23.7823
22.9287
22.0689
21.1952
20.306
19.4038
18.4951
17.5882
16.6916
15.8127
14.9568
14.1261
13.3204
12.5375
11.774
11.0263
10.2909
9.56467
8.84518
8.13042
7.41893
6.70961
6.00172
5.29471
4.58825
3.8821
3.17612
2.47023
1.76438
1.05856
0.352791
35.4568
33.5159
31.5585
29.926
28.5811
27.4386
26.4288
25.5019
24.6228
23.7666
22.9157
22.0578
21.1865
20.3
19.4011
18.496
17.5925
16.6988
15.8221
14.9673
14.1369
13.3306
12.5467
11.7819
11.0328
10.2961
9.56873
8.84826
8.13272
7.4206
6.71082
6.00257
5.2953
4.58866
3.88238
3.17631
2.47035
1.76446
1.05861
0.352806
36.8555
34.1897
31.7897
29.9593
28.5427
27.3832
26.3769
25.4598
24.5913
23.7443
22.9007
22.0483
21.1806
20.2962
19.3984
18.4936
17.5901
16.6963
15.8196
14.9651
14.1351
13.3295
12.5461
11.7818
11.0331
10.2966
9.56937
8.84892
8.13333
7.42114
6.71127
6.00294
5.2956
4.58889
3.88255
3.17644
2.47045
1.76453
1.05865
0.352805
38.5064
35.0995
32.1882
30.0927
28.5571
27.3521
26.3347
25.4211
24.5615
23.7246
22.8898
22.0438
21.1794
20.2955
19.396
18.4883
17.5815
16.6848
15.8063
14.9514
14.1224
13.3185
12.5372
11.775
11.0282
10.2932
9.56711
8.8475
8.1325
7.42071
6.71108
6.00289
5.29563
4.58896
3.88264
3.17652
2.47051
1.76457
1.05867
0.352806
40.1509
36.0711
32.6633
30.2899
28.6165
27.3503
26.311
25.3946
24.541
23.713
22.8867
22.0466
21.1843
20.2986
19.3945
18.4808
17.5678
16.6657
15.7838
14.9281
14.1004
13.2993
12.5215
11.7627
11.019
10.2866
9.56253
8.84444
8.13053
7.41949
6.71037
6.00251
5.29545
4.5889
3.88264
3.17655
2.47056
1.76461
1.0587
0.352815
41.6451
36.9918
33.1434
30.5118
28.7027
27.3714
26.3051
25.382
24.5316
23.711
22.8922
22.057
21.1954
20.3055
19.3942
18.472
17.5503
16.6409
15.7545
14.8977
14.0718
13.2744
12.501
11.7467
11.007
10.2779
9.55643
8.84029
8.1278
7.41776
6.70931
6.0019
5.29512
4.58874
3.88259
3.17655
2.47058
1.76464
1.05872
0.35283
42.9065
37.7901
33.5768
30.7254
28.7966
27.405
26.312
25.3807
24.5318
23.717
22.9045
22.0733
21.2108
20.3151
19.3951
18.4629
17.5314
16.6136
15.7222
14.8642
14.0405
13.2471
12.4787
11.7293
10.9939
10.2684
9.54974
8.83573
8.12478
7.41581
6.70811
6.00118
5.29473
4.58854
3.8825
3.17653
2.47059
1.76466
1.05875
0.35285
43.8857
38.4205
33.9282
30.9057
28.8816
27.4406
26.3248
25.3859
24.5377
23.7273
22.9198
22.0914
21.2274
20.3253
19.3965
18.4547
17.5138
16.5878
15.6916
14.8327
14.011
13.2216
12.4578
11.713
10.9817
10.2595
9.54353
8.83148
8.12195
7.41399
6.70697
6.0005
5.29434
4.58834
3.88241
3.1765
2.47059
1.76468
1.05877
0.352871
44.5527
38.8546
34.1742
31.0351
28.9452
27.4695
26.3374
25.3927
24.5448
23.7375
22.9334
22.1069
21.2413
20.3339
19.3979
18.4485
17.5002
16.5678
15.6678
14.8082
13.9882
13.2019
12.4418
11.7005
10.9723
10.2528
9.53876
8.82822
8.11978
7.41258
6.70609
5.99997
5.29404
4.58818
3.88234
3.17648
2.4706
1.76469
1.05878
0.352888
44.8901
39.0754
34.3005
31.1024
28.979
27.4855
26.3449
25.3973
24.5494
23.7437
22.9415
22.1158
21.2492
20.3388
19.3989
18.4453
17.4928
16.557
15.6549
14.7948
13.9758
13.1912
12.4331
11.6938
10.9673
10.2491
9.5362
8.82647
8.11862
7.41184
6.70562
5.99969
5.29388
4.5881
3.8823
3.17646
2.4706
1.7647
1.05879
0.352897
44.8901
39.0755
34.3005
31.1024
28.979
27.4855
26.3449
25.3973
24.5494
23.7438
22.9415
22.1159
21.2493
20.339
19.399
18.4454
17.493
16.5571
15.655
14.795
13.9759
13.1914
12.4332
11.6939
10.9674
10.2492
9.53626
8.82652
8.11866
7.41187
6.70564
5.99971
5.29389
4.5881
3.8823
3.17647
2.4706
1.7647
1.05879
0.352896
44.5527
38.8546
34.1742
31.0351
28.9452
27.4695
26.3374
25.3928
24.5449
23.7377
22.9337
22.1072
21.2416
20.3343
19.3984
18.449
17.5007
16.5683
15.6683
14.8086
13.9886
13.2023
12.4421
11.7008
10.9726
10.253
9.53894
8.82836
8.11989
7.41267
6.70616
6.00002
5.29407
4.5882
3.88235
3.17649
2.4706
1.76469
1.05878
0.352885
43.8858
38.4206
33.9283
30.9058
28.8817
27.4407
26.3249
25.386
24.5379
23.7276
22.9201
22.0919
21.2279
20.326
19.3972
18.4555
17.5145
16.5886
15.6923
14.8334
14.0117
13.2223
12.4584
11.7135
10.9821
10.2599
9.54381
8.83171
8.12213
7.41412
6.70707
6.00058
5.29439
4.58838
3.88243
3.17652
2.4706
1.76468
1.05876
0.352867
42.9067
37.7902
33.577
30.7255
28.7967
27.4051
26.3121
25.3809
24.5321
23.7174
22.905
22.0739
21.2115
20.3159
19.396
18.4638
17.5324
16.6145
15.7231
14.8652
14.0413
13.2479
12.4794
11.7299
10.9944
10.2688
9.55011
8.83603
8.12501
7.41599
6.70824
6.00128
5.2948
4.58859
3.88253
3.17655
2.4706
1.76466
1.05874
0.352845
41.6453
36.992
33.1435
30.512
28.7029
27.3715
26.3053
25.3823
24.532
23.7114
22.8927
22.0577
21.1962
20.3065
19.3953
18.4731
17.5514
16.642
15.7556
14.8987
14.0728
13.2753
12.5018
11.7474
11.0076
10.2784
9.55686
8.84064
8.12808
7.41797
6.70947
6.00201
5.2952
4.5888
3.88262
3.17657
2.47059
1.76464
1.05872
0.352823
40.151
36.0713
32.6635
30.29
28.6166
27.3505
26.3112
25.3949
24.5413
23.7135
22.8873
22.0473
21.1853
20.2996
19.3956
18.482
17.569
16.6669
15.785
14.9292
14.1014
13.3003
12.5224
11.7635
11.0197
10.2872
9.56301
8.84482
8.13083
7.41972
6.71054
6.00263
5.29554
4.58895
3.88267
3.17657
2.47056
1.76461
1.05869
0.352806
38.5065
35.0996
32.1883
30.0928
28.5572
27.3523
26.3349
25.4214
24.5619
23.7251
22.8905
22.0446
21.1804
20.2966
19.3972
18.4896
17.5828
16.6861
15.8075
14.9526
14.1235
13.3195
12.5382
11.7759
11.0289
10.2938
9.5676
8.8479
8.13281
7.42094
6.71125
6.00301
5.29571
4.58901
3.88266
3.17653
2.47051
1.76457
1.05866
0.352797
36.8556
34.1898
31.7897
29.9593
28.5428
27.3833
26.3772
25.4601
24.5917
23.7449
22.9014
22.0492
21.1816
20.2973
19.3996
18.4949
17.5914
16.6976
15.8208
14.9663
14.1362
13.3306
12.5471
11.7827
11.0338
10.2972
9.56986
8.84931
8.13363
7.42137
6.71143
6.00305
5.29567
4.58893
3.88257
3.17644
2.47044
1.76451
1.05863
0.352795
35.4567
33.5158
31.5585
29.926
28.5812
27.4388
26.4291
25.5022
24.6232
23.7672
22.9163
22.0587
21.1875
20.3011
19.4023
18.4973
17.5938
16.7001
15.8234
14.9685
14.138
13.3317
12.5476
11.7827
11.0335
10.2967
9.56919
8.84863
8.133
7.42081
6.71096
6.00267
5.29536
4.58869
3.88239
3.1763
2.47034
1.76444
1.0586
0.352795
34.757
33.3241
31.5845
30.0037
28.6532
27.4929
26.4671
25.529
24.643
23.7828
22.9294
22.0697
21.1962
20.307
19.405
18.4964
17.5894
16.6928
15.8139
14.9579
14.1272
13.3214
12.5384
11.7748
11.0269
10.2914
9.56511
8.84552
8.13068
7.41911
6.70974
6.0018
5.29476
4.58827
3.8821
3.17611
2.47021
1.76435
1.05854
0.352777
32.8342
32.1733
31.0325
29.783
28.5901
27.4968
26.4957
25.564
24.6774
23.8143
22.9573
22.0934
21.2151
20.3204
19.4123
18.4978
17.5856
16.6847
15.803
14.9459
14.1154
13.3108
12.5294
11.7677
11.0215
10.2874
9.56227
8.84357
8.12938
7.41828
6.70923
6.0015
5.29461
4.58821
3.8821
3.17614
2.47025
1.76439
1.05856
0.352774
32.9634
32.1996
30.9841
29.7158
28.5304
27.451
26.4616
25.5376
24.6551
23.7937
22.9375
22.075
21.1995
20.3093
19.4072
18.4994
17.5938
16.6986
15.8209
14.9658
14.1355
13.3297
12.5462
11.7818
11.0331
10.2966
9.56931
8.84886
8.13329
7.42111
6.71124
6.00292
5.29558
4.58887
3.88254
3.17643
2.47044
1.76452
1.05865
0.352805
33.479
32.5367
31.138
29.7592
28.5217
27.423
26.4299
25.5084
24.6302
23.7733
22.9213
22.0624
21.19
20.3025
19.4032
18.498
17.5947
16.7014
15.8252
14.9711
14.1414
13.3357
12.552
11.7872
11.0378
10.3005
9.57258
8.85148
8.13534
7.42268
6.71243
6.0038
5.29623
4.58934
3.88288
3.17667
2.47061
1.76464
1.05871
0.352813
34.2117
33.0566
31.4252
29.8878
28.5618
27.4205
26.4107
25.4857
24.6102
23.7585
22.9118
22.0571
21.1871
20.3
19.3999
18.4935
17.5888
16.6941
15.8173
14.9635
14.1349
13.3307
12.5485
11.7849
11.0366
10.3001
9.57258
8.85177
8.13576
7.42315
6.71288
6.0042
5.29658
4.58963
3.88311
3.17685
2.47074
1.76473
1.05876
0.352824
35.0127
33.6502
31.7798
30.0691
28.639
27.4425
26.4074
25.4742
24.5994
23.7523
22.9111
22.0604
21.1913
20.3018
19.3976
18.4866
17.5771
16.6782
15.799
14.9452
14.1182
13.3167
12.5374
11.7767
11.0307
10.2961
9.56999
8.85019
8.13488
7.42272
6.71273
6.00421
5.29667
4.58975
3.88324
3.17697
2.47084
1.7648
1.05881
0.352843
35.7813
34.2365
32.1469
30.2706
28.7364
27.4817
26.4181
25.474
24.5983
23.7553
22.9192
22.072
21.2021
20.3071
19.396
18.4779
17.5612
16.6556
15.7728
14.9188
14.0943
13.2964
12.5212
11.7643
11.0216
10.2897
9.56565
8.84735
8.1331
7.42166
6.71215
6.00394
5.29657
4.58976
3.88329
3.17704
2.47091
1.76486
1.05886
0.352871
36.4526
34.7587
32.4841
30.4644
28.8372
27.5287
26.4376
25.4823
24.605
23.7653
22.934
22.0897
21.2177
20.3149
19.3949
18.4685
17.5434
16.6296
15.7425
14.8885
14.0668
13.2733
12.5027
11.7501
11.0111
10.2822
9.5605
8.84392
8.13089
7.4203
6.71136
6.00351
5.29637
4.58969
3.8833
3.17708
2.47097
1.76491
1.0589
0.352904
36.9853
35.1787
32.7609
30.6282
28.9264
27.5738
26.4595
25.4945
24.6156
23.7786
22.9513
22.1094
21.2348
20.323
19.3941
18.4598
17.5267
16.6043
15.7131
14.8594
14.0406
13.2512
12.485
11.7366
11.0012
10.2751
9.55555
8.84059
8.12872
7.41894
6.71054
6.00305
5.29614
4.58959
3.88327
3.1771
2.471
1.76495
1.05894
0.352936
37.3531
35.4711
32.9562
30.746
28.9924
27.6088
26.4779
25.5058
24.6257
23.7907
22.9664
22.126
21.2489
20.3298
19.3935
18.4531
17.5136
16.5847
15.6902
14.8365
14.02
13.2339
12.4713
11.7261
10.9934
10.2695
9.55169
8.83798
8.12702
7.41787
6.70989
6.00268
5.29594
4.5895
3.88325
3.1771
2.47102
1.76498
1.05896
0.352961
37.5406
35.6208
33.057
30.8074
29.0274
27.6278
26.4883
25.5125
24.6318
23.7979
22.9751
22.1355
21.2569
20.3337
19.3934
18.4494
17.5065
16.574
15.6776
14.824
14.0088
13.2245
12.4638
11.7204
10.9892
10.2665
9.54961
8.83658
8.1261
7.41729
6.70954
6.00248
5.29584
4.58946
3.88324
3.17711
2.47103
1.76499
1.05898
0.352975
37.5406
35.6208
33.057
30.8075
29.0274
27.6278
26.4884
25.5126
24.6319
23.7979
22.9752
22.1356
21.257
20.3338
19.3935
18.4496
17.5066
16.5741
15.6778
14.8242
14.0089
13.2247
12.464
11.7205
10.9893
10.2666
9.54966
8.83663
8.12614
7.41732
6.70957
6.00249
5.29585
4.58947
3.88324
3.17711
2.47103
1.76499
1.05897
0.352974
37.3532
35.4712
32.9563
30.7461
28.9924
27.6088
26.478
25.5059
24.6258
23.7909
22.9666
22.1263
21.2492
20.3301
19.394
18.4535
17.5141
16.5851
15.6906
14.8369
14.0204
13.2343
12.4716
11.7264
10.9936
10.2697
9.55186
8.83812
8.12713
7.41795
6.70996
6.00272
5.29597
4.58953
3.88326
3.17711
2.47103
1.76498
1.05896
0.352958
36.9854
35.1788
32.761
30.6283
28.9265
27.5739
26.4596
25.4946
24.6158
23.7789
22.9516
22.1098
21.2353
20.3236
19.3947
18.4605
17.5274
16.605
15.7139
14.8601
14.0412
13.2518
12.4856
11.7371
11.0015
10.2754
9.55582
8.8408
8.12889
7.41907
6.71064
6.00312
5.29619
4.58963
3.8833
3.17711
2.47101
1.76495
1.05893
0.352931
36.4528
34.7589
32.4842
30.4645
28.8373
27.5288
26.4377
25.4825
24.6053
23.7656
22.9344
22.0903
21.2184
20.3157
19.3957
18.4694
17.5443
16.6305
15.7434
14.8894
14.0677
13.274
12.5034
11.7507
11.0117
10.2826
9.56086
8.8442
8.13111
7.42047
6.71149
6.0036
5.29644
4.58973
3.88332
3.17709
2.47097
1.76491
1.0589
0.352897
35.7814
34.2366
32.147
30.2708
28.7365
27.4819
26.4183
25.4743
24.5986
23.7557
22.9198
22.0727
21.2029
20.3081
19.397
18.4789
17.5622
16.6566
15.7738
14.9198
14.0952
13.2973
12.522
11.765
11.0222
10.2902
9.56606
8.84768
8.13336
7.42187
6.71231
6.00405
5.29665
4.58981
3.88332
3.17705
2.47092
1.76486
1.05885
0.352862
35.0128
33.6504
31.7799
30.0692
28.6391
27.4426
26.4076
25.4744
24.5997
23.7528
22.9117
22.0612
21.1922
20.3028
19.3987
18.4877
17.5782
16.6793
15.8001
14.9463
14.1193
13.3177
12.5383
11.7774
11.0313
10.2966
9.57045
8.85056
8.13516
7.42294
6.71289
6.00433
5.29675
4.5898
3.88327
3.17698
2.47084
1.7648
1.0588
0.352833
34.2118
33.0567
31.4253
29.8879
28.562
27.4207
26.4109
25.486
24.6106
23.759
22.9125
22.0579
21.188
20.3011
19.4011
18.4947
17.59
16.6953
15.8185
14.9647
14.136
13.3317
12.5494
11.7858
11.0373
10.3006
9.57306
8.85215
8.13606
7.42337
6.71305
6.00432
5.29665
4.58968
3.88313
3.17686
2.47074
1.76472
1.05875
0.352812
33.479
32.5367
31.138
29.7592
28.5218
27.4232
26.4301
25.5087
24.6306
23.7738
22.9219
22.0632
21.1909
20.3036
19.4043
18.4992
17.596
16.7026
15.8264
14.9723
14.1425
13.3368
12.553
11.788
11.0385
10.3011
9.57305
8.85186
8.13563
7.4229
6.71259
6.00391
5.2963
4.58938
3.8829
3.17667
2.4706
1.76462
1.0587
0.352801
32.9633
32.1995
30.9841
29.7158
28.5305
27.4511
26.4619
25.5379
24.6555
23.7942
22.9382
22.0758
21.2004
20.3104
19.4084
18.5007
17.5951
16.6999
15.8222
14.967
14.1366
13.3307
12.5471
11.7826
11.0337
10.2971
9.56976
8.84921
8.13355
7.4213
6.71138
6.003
5.29564
4.5889
3.88255
3.17642
2.47043
1.7645
1.05863
0.352791
32.834
32.1731
31.0323
29.783
28.5901
27.4969
26.4959
25.5643
24.6778
23.8148
22.9579
22.0942
21.2161
20.3215
19.4135
18.499
17.5868
16.6859
15.8043
14.947
14.1165
13.3118
12.5303
11.7684
11.0222
10.2879
9.56268
8.84388
8.12961
7.41844
6.70933
6.00157
5.29464
4.58822
3.88209
3.17611
2.47022
1.76436
1.05853
0.352755
31.4133
31.062
30.3172
29.3758
28.3809
27.4032
26.466
25.5685
24.6998
23.8457
22.9922
22.1277
21.2451
20.3429
19.4256
18.5011
17.5795
16.671
15.7843
14.925
14.095
13.2925
12.5141
11.7555
11.0123
10.2807
9.55754
8.84032
8.12722
7.41688
6.70836
6.00099
5.29432
4.58806
3.88203
3.17612
2.47025
1.76439
1.05855
0.35276
31.3718
31.023
30.2562
29.3101
28.323
27.3564
26.4283
25.5364
24.6701
23.8163
22.9628
22.0997
21.2209
20.3255
19.4172
18.503
17.5914
16.6913
15.8105
14.954
14.1239
13.3194
12.5377
11.7752
11.0282
10.2932
9.56705
8.84743
8.13244
7.42064
6.71103
6.00285
5.2956
4.58893
3.88262
3.1765
2.47051
1.76457
1.05867
0.352805
31.5161
31.1579
30.3304
29.3332
28.3161
27.3356
26.4029
25.5108
24.646
23.7945
22.9436
22.0833
21.2077
20.3156
19.4114
18.5018
17.5946
16.6981
15.8199
14.9653
14.136
13.3314
12.5489
11.7852
11.0367
10.3001
9.5726
8.85176
8.13574
7.42313
6.71286
6.00419
5.29656
4.58962
3.8831
3.17684
2.47074
1.76472
1.05876
0.352823
31.8142