# vtk DataFile Version 2.0
I need something to put here
ASCII

DATASET STRUCTURED_GRID
DIMENSIONS 41 21 21
POINTS 18081 float
0.000000 0.000000 0.000000
0.100000 0.000000 0.000000
0.200000 0.000000 0.000000
0.300000 0.000000 0.000000
0.400000 0.000000 0.000000
0.500000 0.000000 0.000000
0.600000 0.000000 0.000000
0.700000 0.000000 0.000000
0.800000 0.000000 0.000000
0.900000 0.000000 0.000000
1.000000 0.000000 0.000000
1.100000 0.000000 0.000000
1.200000 0.000000 0.000000
1.300000 0.000000 0.000000
1.400000 0.000000 0.000000
1.500000 0.000000 0.000000
1.600000 0.000000 0.000000
1.700000 0.000000 0.000000
1.800000 0.000000 0.000000
1.900000 0.000000 0.000000
2.000000 0.000000 0.000000
2.100000 0.000000 0.000000
2.200000 0.000000 0.000000
2.300000 0.000000 0.000000
2.400000 0.000000 0.000000
2.500000 0.000000 0.000000
2.600000 0.000000 0.000000
2.700000 0.000000 0.000000
2.800000 0.000000 0.000000
2.900000 0.000000 0.000000
3.000000 0.000000 0.000000
3.100000 0.000000 0.000000
3.200000 0.000000 0.000000
3.300000 0.000000 0.000000
3.400000 0.000000 0.000000
3.500000 0.000000 0.000000
3.600000 0.000000 0.000000
3.700000 0.000000 0.000000
3.800000 0.000000 0.000000
3.900000 0.000000 0.000000
4.000000 0.000000 0.000000
0.000000 0.100000 0.000000
0.100000 0.100000 0.000000
0.200000 0.100000 0.000000
0.300000 0.100000 0.000000
0.400000 0.100000 0.000000
0.500000 0.100000 0.000000
0.600000 0.100000 0.000000
0.700000 0.100000 0.000000
0.800000 0.100000 0.000000
0.900000 0.100000 0.000000
1.000000 0.100000 0.000000
1.100000 0.100000 0.000000
1.200000 0.100000 0.000000
1.300000 0.100000 0.000000
1.400000 0.100000 0.000000
1.500000 0.100000 0.000000
1.600000 0.100000 0.000000
1.700000 0.100000 0.000000
1.800000 0.100000 0.000000
1.900000 0.100000 0.000000
2.000000 0.100000 0.000000
2.100000 0.100000 0.000000
2.200000 0.100000 0.000000
2.300000 0.100000 0.000000
2.400000 0.100000 0.000000
2.500000 0.100000 0.000000
2.600000 0.100000 0.000000
2.700000 0.100000 0.000000
2.800000 0.100000 0.000000
2.900000 0.100000 0.000000
3.000000 0.100000 0.000000
3.100000 0.100000 0.000000
3.200000 0.100000 0.000000
3.300000 0.100000 0.000000
3.400000 0.100000 0.000000
3.500000 0.100000 0.000000
3.600000 0.100000 0.000000
3.700000 0.100000 0.000000
3.800000 0.100000 0.000000
3.900000 0.100000 0.000000
4.000000 0.100000 0.000000
0.000000 0.200000 0.000000
0.100000 0.200000 0.000000
0.200000 0.200000 0.000000
0.300000 0.200000 0.000000
0.400000 0.200000 0.000000
0.500000 0.200000 0.000000
0.600000 0.200000 0.000000
0.700000 0.200000 0.000000
0.800000 0.200000 0.000000
0.900000 0.200000 0.000000
1.000000 0.200000 0.000000
1.100000 0.200000 0.000000
1.200000 0.200000 0.000000
1.300000 0.200000 0.000000
1.400000 0.200000 0.000000
1.500000 0.200000 0.000000
1.600000 0.200000 0.000000
1.700000 0.200000 0.000000
1.800000 0.200000 0.000000
1.900000 0.200000 0.000000
2.000000 0.200000 0.000000
2.100000 0.200000 0.000000
2.200000 0.200000 0.000000
2.300000 0.200000 0.000000
2.400000 0.200000 0.000000
2.500000 0.200000 0.000000
2.600000 0.200000 0.000000
2.700000 0.200000 0.000000
2.800000 0.200000 0.000000
2.900000 0.200000 0.000000
3.000000 0.200000 0.000000
3.100000 0.200000 0.000000
3.200000 0.200000 0.000000
3.300000 0.200000 0.000000
3.400000 0.200000 0.000000
3.500000 0.200000 0.000000
3.600000 0.200000 0.000000
3.700000 0.200000 0.000000
3.800000 0.200000 0.000000
3.900000 0.200000 0.000000
4.000000 0.200000 0.000000
0.000000 0.300000 0.000000
0.100000 0.300000 0.000000
0.200000 0.300000 0.000000
0.300000 0.300000 0.000000
0.400000 0.300000 0.000000
0.500000 0.300000 0.000000
0.600000 0.300000 0.000000
0.700000 0.300000 0.000000
0.800000 0.300000 0.000000
0.900000 0.300000 0.000000
1.000000 0.300000 0.000000
1.100000 0.300000 0.000000
1.200000 0.300000 0.000000
1.300000 0.300000 0.000000
1.400000 0.300000 0.000000
1.500000 0.300000 0.000000
1.600000 0.300000 0.000000
1.700000 0.300000 0.000000
1.800000 0.300000 0.000000
1.900000 0.300000 0.000000
2.000000 0.300000 0.000000
2.100000 0.300000 0.000000
2.200000 0.300000 0.000000
2.300000 0.300000 0.000000
2.400000 0.300000 0.000000
2.500000 0.300000 0.000000
2.600000 0.300000 0.000000
2.700000 0.300000 0.000000
2.800000 0.300000 0.000000
2.900000 0.300000 0.000000
3.000000 0.300000 0.000000
3.100000 0.300000 0.000000
3.200000 0.300000 0.000000
3.300000 0.300000 0.000000
3.400000 0.300000 0.000000
3.500000 0.300000 0.000000
3.600000 0.300000 0.000000
3.700000 0.300000 0.000000
3.800000 0.300000 0.000000
3.900000 0.300000 0.000000
4.000000 0.300000 0.000000
0.000000 0.400000 0.000000
0.100000 0.400000 0.000000
0.200000 0.400000 0.000000
0.300000 0.400000 0.000000
0.400000 0.400000 0.000000
0.500000 0.400000 0.000000
0.600000 0.400000 0.000000
0.700000 0.400000 0.000000
0.800000 0.400000 0.000000
0.900000 0.400000 0.000000
1.000000 0.400000 0.000000
1.100000 0.400000 0.000000
1.200000 0.400000 0.000000
1.300000 0.400000 0.000000
1.400000 0.400000 0.000000
1.500000 0.400000 0.000000
1.600000 0.400000 0.000000
1.700000 0.400000 0.000000
1.800000 0.400000 0.000000
1.900000 0.400000 0.000000
2.000000 0.400000 0.000000
2.100000 0.400000 0.000000
2.200000 0.400000 0.000000
2.300000 0.400000 0.000000
2.400000 0.400000 0.000000
2.500000 0.400000 0.000000
2.600000 0.400000 0.000000
2.700000 0.400000 0.000000
2.800000 0.400000 0.000000
2.900000 0.400000 0.000000
3.000000 0.400000 0.000000
3.100000 0.400000 0.000000
3.200000 0.400000 0.000000
3.300000 0.400000 0.000000
3.400000 0.400000 0.000000
3.500000 0.400000 0.000000
3.600000 0.400000 0.000000
3.700000 0.400000 0.000000
3.800000 0.400000 0.000000
3.900000 0.400000 0.000000
4.000000 0.400000 0.000000
0.000000 0.500000 0.000000
0.100000 0.500000 0.000000
0.200000 0.500000 0.000000
0.300000 0.500000 0.000000
0.400000 0.500000 0.000000
0.500000 0.500000 0.000000
0.600000 0.500000 0.000000
0.700000 0.500000 0.000000
0.800000 0.500000 0.000000
0.900000 0.500000 0.000000
1.000000 0.500000 0.000000
1.100000 0.500000 0.000000
1.200000 0.500000 0.000000
1.300000 0.500000 0.000000
1.400000 0.500000 0.000000
1.500000 0.500000 0.000000
1.600000 0.500000 0.000000
1.700000 0.500000 0.000000
1.800000 0.500000 0.000000
1.900000 0.500000 0.000000
2.000000 0.500000 0.000000
2.100000 0.500000 0.000000
2.200000 0.500000 0.000000
2.300000 0.500000 0.000000
2.400000 0.500000 0.000000
2.500000 0.500000 0.000000
2.600000 0.500000 0.000000
2.700000 0.500000 0.000000
2.800000 0.500000 0.000000
2.900000 0.500000 0.000000
3.000000 0.500000 0.000000
3.100000 0.500000 0.000000
3.200000 0.500000 0.000000
3.300000 0.500000 0.000000
3.400000 0.500000 0.000000
3.500000 0.500000 0.000000
3.600000 0.500000 0.000000
3.700000 0.500000 0.000000
3.800000 0.500000 0.000000
3.900000 0.500000 0.000000
4.000000 0.500000 0.000000
0.000000 0.600000 0.000000
0.100000 0.600000 0.000000
0.200000 0.600000 0.000000
0.300000 0.600000 0.000000
0.400000 0.600000 0.000000
0.500000 0.600000 0.000000
0.600000 0.600000 0.000000
0.700000 0.600000 0.000000
0.800000 0.600000 0.000000
0.900000 0.600000 0.000000
1.000000 0.600000 0.000000
1.100000 0.600000 0.000000
1.200000 0.600000 0.000000
1.300000 0.600000 0.000000
1.400000 0.600000 0.000000
1.500000 0.600000 0.000000
1.600000 0.600000 0.000000
1.700000 0.600000 0.000000
1.800000 0.600000 0.000000
1.900000 0.600000 0.000000
2.000000 0.600000 0.000000
2.100000 0.600000 0.000000
2.200000 0.600000 0.000000
2.300000 0.600000 0.000000
2.400000 0.600000 0.000000
2.500000 0.600000 0.000000
2.600000 0.600000 0.000000
2.700000 0.600000 0.000000
2.800000 0.600000 0.000000
2.900000 0.600000 0.000000
3.000000 0.600000 0.000000
3.100000 0.600000 0.000000
3.200000 0.600000 0.000000
3.300000 0.600000 0.000000
3.400000 0.600000 0.000000
3.500000 0.600000 0.000000
3.600000 0.600000 0.000000
3.700000 0.600000 0.000000
3.800000 0.600000 0.000000
3.900000 0.600000 0.000000
4.000000 0.600000 0.000000
0.000000 0.700000 0.000000
0.100000 0.700000 0.000000
0.200000 0.700000 0.000000
0.300000 0.700000 0.000000
0.400000 0.700000 0.000000
0.500000 0.700000 0.000000
0.600000 0.700000 0.000000
0.700000 0.700000 0.000000
0.800000 0.700000 0.000000
0.900000 0.700000 0.000000
1.000000 0.700000 0.000000
1.100000 0.700000 0.000000
1.200000 0.700000 0.000000
1.300000 0.700000 0.000000
1.400000 0.700000 0.000000
1.500000 0.700000 0.000000
1.600000 0.700000 0.000000
1.700000 0.700000 0.000000
1.800000 0.700000 0.000000
1.900000 0.700000 0.000000
2.000000 0.700000 0.000000
2.100000 0.700000 0.000000
2.200000 0.700000 0.000000
2.300000 0.700000 0.000000
2.400000 0.700000 0.000000
2.500000 0.700000 0.000000
2.600000 0.700000 0.000000
2.700000 0.700000 0.000000
2.800000 0.700000 0.000000
2.900000 0.700000 0.000000
3.000000 0.700000 0.000000
3.100000 0.700000 0.000000
3.200000 0.700000 0.000000
3.300000 0.700000 0.000000
3.400000 0.700000 0.000000
3.500000 0.700000 0.000000
3.600000 0.700000 0.000000
3.700000 0.700000 0.000000
3.800000 0.700000 0.000000
3.900000 0.700000 0.000000
4.000000 0.700000 0.000000
0.000000 0.800000 0.000000
0.100000 0.800000 0.000000
0.200000 0.800000 0.000000
0.300000 0.800000 0.000000
0.400000 0.800000 0.000000
0.500000 0.800000 0.000000
0.600000 0.800000 0.000000
0.700000 0.800000 0.000000
0.800000 0.800000 0.000000
0.900000 0.800000 0.000000
1.000000 0.800000 0.000000
1.100000 0.800000 0.000000
1.200000 0.800000 0.000000
1.300000 0.800000 0.000000
1.400000 0.800000 0.000000
1.500000 0.800000 0.000000
1.600000 0.800000 0.000000
1.700000 0.800000 0.000000
1.800000 0.800000 0.000000
1.900000 0.800000 0.000000
2.000000 0.800000 0.000000
2.100000 0.800000 0.000000
2.200000 0.800000 0.000000
2.300000 0.800000 0.000000
2.400000 0.800000 0.000000
2.500000 0.800000 0.000000
2.600000 0.800000 0.000000
2.700000 0.800000 0.000000
2.800000 0.800000 0.000000
2.900000 0.800000 0.000000
3.000000 0.800000 0.000000
3.100000 0.800000 0.000000
3.200000 0.800000 0.000000
3.300000 0.800000 0.000000
3.400000 0.800000 0.000000
3.500000 0.800000 0.000000
3.600000 0.800000 0.000000
[...]
CELL_DATA 16000
SCALARS pressure float 1
LOOKUP_TABLE default
34.7496
31.6264
29.2887
27.5445
26.1796
25.0511
24.0723
23.1902
22.3715
21.5945
20.8445
20.1117
19.3892
18.6725
17.9592
17.2481
16.5389
15.8318
15.1269
14.424
13.7227
13.0223
12.3223
11.622
10.9212
10.2197
9.51743
8.81441
8.11075
7.40657
6.70196
5.99704
5.29188
4.58654
3.88108
3.17553
2.46992
1.76428
1.0586
0.352886
37.1007
31.9862
29.1718
27.3632
26.0297
24.9439
23.9997
23.1424
22.3407
21.575
20.8326
20.1047
19.3853
18.6705
17.9583
17.2478
16.5389
15.832
15.1271
14.4243
13.723
13.0226
12.3225
11.6223
10.9214
10.2199
9.51753
8.81448
8.1108
7.4066
6.70198
5.99705
5.29188
4.58654
3.88107
3.17553
2.46992
1.76427
1.0586
0.352889
40.4593
32.9637
29.3301
27.2733
25.8885
24.8132
23.8947
23.0632
22.283
21.5342
20.8045
20.0858
19.3729
18.6626
17.9531
17.2442
16.5363
15.83
15.1256
14.4233
13.7225
13.0225
12.3227
11.6226
10.9219
10.2203
9.51792
8.8148
8.11106
7.40679
6.70213
5.99715
5.29195
4.58659
3.88111
3.17555
2.46994
1.76428
1.05861
0.352898
43.96
34.2087
29.6894
27.3035
25.8095
24.7099
23.798
22.9826
22.2197
21.4866
20.7699
20.0615
19.3563
18.6512
17.945
17.2381
16.5314
15.8259
15.1225
14.4211
13.7212
13.022
12.3228
11.6231
10.9225
10.2209
9.51853
8.81533
8.11148
7.40713
6.70238
5.99734
5.29208
4.58668
3.88117
3.17559
2.46996
1.7643
1.05862
0.352906
47.2314
35.4921
30.142
27.4158
25.7887
24.6435
23.7227
22.9133
22.1617
21.4407
20.7354
20.0366
19.3387
18.6387
17.9358
17.2306
16.5249
15.8203
15.1179
14.4179
13.7193
13.0213
12.3229
11.6236
10.9233
10.2218
9.51933
8.81602
8.11205
7.40757
6.70271
5.99758
5.29226
4.5868
3.88125
3.17565
2.47
1.76433
1.05863
0.352913
50.0959
36.6799
30.6056
27.5667
25.8064
24.6075
23.6693
22.8587
22.1131
21.4008
20.7046
20.014
19.3226
18.627
17.9266
17.2228
16.5178
15.8139
15.1126
14.414
13.717
13.0203
12.3229
11.6243
10.9242
10.2228
9.52025
8.81681
8.11269
7.40807
6.70309
5.99786
5.29246
4.58694
3.88135
3.17571
2.47004
1.76435
1.05865
0.352918
52.4589
37.6934
31.025
27.7214
25.8427
24.5922
23.6339
22.8184
22.0752
21.3687
20.6792
19.9952
19.3091
18.617
17.9185
17.2154
16.5107
15.8073
15.1071
14.4101
13.7148
13.0195
12.3231
11.625
10.9252
10.2238
9.52121
8.81763
8.11335
7.40858
6.70347
5.99814
5.29266
4.58708
3.88145
3.17578
2.47009
1.76438
1.05866
0.352922
54.2662
38.4852
31.3645
27.8556
25.8822
24.5885
23.6118
22.7904
22.0477
21.3446
20.66
19.9809
19.2988
18.6093
17.9119
17.2093
16.5047
15.8015
15.1023
14.4067
13.7128
13.0188
12.3233
11.6257
10.9261
10.2248
9.52208
8.81837
8.11395
7.40904
6.70382
5.99839
5.29284
4.58721
3.88153
3.17583
2.47012
1.7644
1.05868
0.352924
55.4859
39.0265
31.6017
27.9531
25.9141
24.5896
23.5992
22.7729
22.0297
21.3287
20.6472
19.9713
19.2919
18.604
17.9074
17.2049
16.5002
15.7973
15.0987
14.4042
13.7114
13.0183
12.3235
11.6263
10.9268
10.2255
9.52274
8.81893
8.1144
7.40939
6.70408
5.99859
5.29298
4.58731
3.8816
3.17588
2.47015
1.76442
1.05868
0.352926
56.0998
39.3009
31.7233
28.0041
25.9317
24.5912
23.5936
22.7645
22.0209
21.3208
20.6408
19.9665
19.2884
18.6013
17.905
17.2026
16.4979
15.7951
15.0969
14.4029
13.7107
13.0181
12.3236
11.6266
10.9272
10.2259
9.52311
8.81923
8.11464
7.40958
6.70422
5.99869
5.29305
4.58736
3.88163
3.1759
2.47017
1.76443
1.05869
0.352926
56.0998
39.3009
31.7233
28.0041
25.9317
24.5912
23.5936
22.7645
22.0209
21.3208
20.6407
19.9665
19.2884
18.6013
17.905
17.2026
16.4979
15.7951
15.0969
14.4029
13.7107
13.0181
12.3236
11.6266
10.9272
10.2259
9.52311
8.81923
8.11464
7.40958
6.70422
5.99869
5.29305
4.58736
3.88163
3.1759
2.47017
1.76443
1.05869
0.352926
55.4859
39.0265
31.6017
27.9531
25.9141
24.5896
23.5992
22.7729
22.0297
21.3287
20.6472
19.9713
19.2919
18.6039
17.9074
17.2049
16.5002
15.7973
15.0987
14.4042
13.7114
13.0183
12.3235
11.6263
10.9268
10.2255
9.52275
8.81893
8.1144
7.40939
6.70408
5.99859
5.29298
4.58731
3.8816
3.17588
2.47015
1.76442
1.05868
0.352926
54.2662
38.4852
31.3645
27.8556
25.8822
24.5884
23.6118
22.7904
22.0476
21.3446
20.66
19.9809
19.2988
18.6092
17.9119
17.2092
16.5046
15.8015
15.1023
14.4067
13.7128
13.0188
12.3233
11.6257
10.9261
10.2248
9.52208
8.81837
8.11395
7.40905
6.70382
5.9984
5.29284
4.58721
3.88154
3.17584
2.47012
1.7644
1.05868
0.352924
52.4589
37.6934
31.025
27.7214
25.8426
24.5922
23.6338
22.8184
22.0752
21.3686
20.6792
19.9951
19.309
18.6169
17.9184
17.2153
16.5107
15.8073
15.1071
14.4101
13.7148
13.0195
12.3231
11.625
10.9252
10.2238
9.52121
8.81763
8.11336
7.40859
6.70348
5.99814
5.29266
4.58708
3.88145
3.17578
2.47009
1.76438
1.05866
0.352922
50.0959
36.6799
30.6056
27.5666
25.8063
24.6075
23.6693
22.8587
22.1131
21.4008
20.7045
20.0139
19.3225
18.6269
17.9265
17.2227
16.5177
15.8138
15.1126
14.414
13.717
13.0203
12.3229
11.6243
10.9242
10.2228
9.52026
8.81682
8.1127
7.40807
6.70309
5.99786
5.29246
4.58694
3.88135
3.17571
2.47004
1.76435
1.05865
0.352918
47.2314
35.492
30.142
27.4157
25.7887
24.6434
23.7227
22.9132
22.1616
21.4406
20.7353
20.0365
19.3386
18.6386
17.9357
17.2306
16.5249
15.8203
15.1179
14.4178
13.7193
13.0213
12.3229
11.6236
10.9233
10.2218
9.51934
8.81603
8.11205
7.40757
6.70271
5.99758
5.29226
4.5868
3.88126
3.17565
2.47
1.76433
1.05863
0.352913
43.9599
34.2086
29.6893
27.3034
25.8094
24.7098
23.7979
22.9825
22.2196
21.4865
20.7698
20.0614
19.3562
18.6511
17.9449
17.2381
16.5313
15.8259
15.1224
14.421
13.7212
13.022
12.3228
11.6231
10.9225
10.221
9.51854
8.81534
8.11149
7.40713
6.70238
5.99734
5.29208
4.58668
3.88117
3.17559
2.46996
1.7643
1.05862
0.352906
40.4592
32.9636
29.33
27.2732
25.8883
24.813
23.8946
23.0631
22.2829
21.5341
20.8044
20.0857
19.3728
18.6625
17.953
17.2441
16.5362
15.8299
15.1256
14.4233
13.7225
13.0225
12.3227
11.6226
10.9219
10.2203
9.51792
8.81481
8.11106
7.4068
6.70213
5.99715
5.29195
4.58659
3.88111
3.17555
2.46994
1.76428
1.05861
0.352897
37.1005
31.986
29.1717
27.363
26.0296
24.9438
23.9996
23.1423
22.3406
21.5749
20.8325
20.1046
19.3852
18.6704
17.9582
17.2477
16.5389
15.8319
15.1271
14.4242
13.7229
13.0226
12.3225
11.6223
10.9214
10.2199
9.51754
8.81449
8.1108
7.4066
6.70198
5.99705
5.29188
4.58654
3.88108
3.17553
2.46992
1.76427
1.0586
0.352889
34.7492
31.6261
29.2885
27.5444
26.1795
25.051
24.0722
23.1901
22.3714
21.5944
20.8444
20.1116
19.3891
18.6724
17.9591
17.248
16.5389
15.8318
15.1269
14.424
13.7227
13.0223
12.3223
11.622
10.9212
10.2197
9.51743
8.81441
8.11076
7.40657
6.70197
5.99704
5.29188
4.58654
3.88108
3.17553
2.46992
1.76428
1.0586
0.352886
32.3821
30.9473
29.2071
27.629
26.2861
25.1402
24.1382
23.2365
22.403
21.6155
20.8583
20.1205
19.3947
18.6759
17.9611
17.2491
16.5393
15.8319
15.1268
14.4239
13.7226
13.0223
12.3222
11.622
10.9212
10.2197
9.51743
8.81441
8.11075
7.40656
6.70196
5.99703
5.29187
4.58653
3.88107
3.17553
2.46992
1.76427
1.0586
0.352889
33.0834
31.1404
29.183
27.5541
26.2179
25.0912
24.1066
23.2175
22.3924
21.61
20.8559
20.1199
19.395
18.6766
17.9622
17.2504
16.5407
15.8333
15.1281
14.425
13.7234
13.0228
12.3226
11.6221
10.9212
10.2196
9.51727
8.81423
8.11058
7.40641
6.70183
5.99692
5.29178
4.58646
3.88102
3.17549
2.46989
1.76425
1.05858
0.352884
34.4833
31.8146
29.4145
27.5877
26.1799
25.0361
24.055
23.1753
22.3602
21.5866
20.8394
20.1085
19.3874
18.6717
17.9591
17.2483
16.5394
15.8324
15.1276
14.4248
13.7234
13.023
12.3228
11.6224
10.9215
10.2198
9.51744
8.81435
8.11066
7.40646
6.70186
5.99694
5.29179
4.58646
3.88102
3.17548
2.46988
1.76425
1.05858
0.352887
36.1333
32.7231
29.8114
27.719
26.1914
25.0011
24.0072
23.1293
22.3211
21.5556
20.816
20.0916
19.3755
18.6634
17.9531
17.2439
16.5359
15.8296
15.1255
14.4233
13.7227
13.0228
12.323
11.6228
10.9219
10.2203
9.51786
8.81471
8.11094
7.40667
6.70201
5.99705
5.29186
4.58651
3.88105
3.1755
2.4699
1.76425
1.05858
0.35289
37.7745
33.6914
30.2828
27.9118
26.245
24.9915
23.9731
23.0892
22.2836
21.524
20.7911
20.073
19.362
18.6536
17.9457
17.2379
16.5309
15.8254
15.1221
14.421
13.7213
13.0223
12.3231
11.6232
10.9226
10.221
9.51848
8.81524
8.11137
7.40701
6.70226
5.99723
5.29199
4.5866
3.88111
3.17554
2.46992
1.76427
1.05859
0.352893
39.2635
34.6071
30.7575
28.1273
26.3231
25.0019
23.9532
23.0585
22.2518
21.4957
20.7681
20.0554
19.3491
18.6439
17.9381
17.2315
16.5251
15.8204
15.1181
14.4182
13.7197
13.0217
12.3232
11.6238
10.9233
10.2218
9.51922
8.81588
8.11189
7.40741
6.70257
5.99746
5.29215
4.58671
3.88118
3.17559
2.46995
1.76429
1.0586
0.352894
40.5186
35.3995
31.1847
28.3336
26.4078
25.0234
23.9443
23.037
22.2271
21.4726
20.7488
20.0404
19.3379
18.6354
17.9311
17.2253
16.5194
15.8152
15.1139
14.4152
13.7181
13.0211
12.3233
11.6244
10.9241
10.2226
9.52
8.81655
8.11244
7.40784
6.70289
5.99769
5.29232
4.58683
3.88126
3.17564
2.46999
1.76431
1.05861
0.352894
41.4914
36.024
31.53
28.5067
26.4839
25.0476
23.9422
23.0231
22.2094
21.4553
20.7339
20.0288
19.3291
18.6286
17.9253
17.2201
16.5145
15.8106
15.1102
14.4127
13.7167
13.0206
12.3235
11.625
10.9249
10.2234
9.52071
8.81715
8.11293
7.40822
6.70318
5.99791
5.29247
4.58694
3.88134
3.17569
2.47002
1.76432
1.05862
0.352894
42.1534
36.4534
31.7711
28.6305
26.5404
25.0674
23.9431
23.0151
22.198
21.4438
20.7239
20.0209
19.3231
18.6238
17.9213
17.2163
16.5109
15.8073
15.1074
14.4108
13.7157
13.0203
12.3237
11.6254
10.9255
10.224
9.52126
8.81762
8.11331
7.40852
6.7034
5.99807
5.29259
4.58702
3.88139
3.17573
2.47004
1.76434
1.05862
0.352893
42.4879
36.6717
31.8947
28.6947
26.5704
25.0785
23.9442
23.0114
22.1925
21.4381
20.7189
20.0169
19.32
18.6213
17.9191
17.2143
16.509
15.8055
15.106
14.4098
13.7151
13.0202
12.3238
11.6257
10.9258
10.2243
9.52156
8.81787
8.11351
7.40867
6.70352
5.99815
5.29265
4.58706
3.88142
3.17575
2.47005
1.76435
1.05863
0.352893
42.4879
36.6717
31.8947
28.6947
26.5704
25.0785
23.9442
23.0114
22.1925
21.4381
20.7189
20.0169
19.32
18.6213
17.9191
17.2143
16.509
15.8055
15.106
14.4098
13.7151
13.0202
12.3238
11.6257
10.9258
10.2243
9.52156
8.81787
8.11351
7.40867
6.70352
5.99816
5.29265
4.58706
3.88142
3.17575
2.47005
1.76435
1.05863
0.352893
42.1534
36.4534
31.7711
28.6304
26.5404
25.0674
23.9431
23.015
22.198
21.4437
20.7239
20.0209
19.3231
18.6238
17.9212
17.2163
16.5108
15.8073
15.1074
14.4108
13.7156
13.0203
12.3237
11.6255
10.9255
10.224
9.52126
8.81762
8.11331
7.40852
6.7034
5.99807
5.29259
4.58702
3.88139
3.17573
2.47004
1.76434
1.05862
0.352893
41.4915
36.0241
31.53
28.5067
26.4838
25.0475
23.9422
23.0231
22.2094
21.4552
20.7339
20.0288
19.3291
18.6285
17.9253
17.22
16.5144
15.8106
15.1101
14.4127
13.7166
13.0206
12.3235
11.625
10.9249
10.2234
9.52072
8.81716
8.11293
7.40823
6.70318
5.99791
5.29248
4.58694
3.88134
3.17569
2.47002
1.76432
1.05862
0.352894
40.5186
35.3995
31.1847
28.3335
26.4077
25.0234
23.9443
23.037
22.2271
21.4725
20.7487
20.0404
19.3378
18.6353
17.931
17.2252
16.5194
15.8151
15.1139
14.4152
13.718
13.0211
12.3233
11.6244
10.9241
10.2226
9.52
8.81655
8.11244
7.40784
6.70289
5.99769
5.29232
4.58683
3.88126
3.17564
2.46999
1.76431
1.05861
0.352894
39.2635
34.6071
30.7575
28.1273
26.3231
25.0018
23.9531
23.0585
22.2518
21.4956
20.768
20.0554
19.349
18.6438
17.938
17.2314
16.5251
15.8203
15.118
14.4181
13.7197
13.0216
12.3232
11.6238
10.9233
10.2218
9.51923
8.81588
8.1119
7.40742
6.70257
5.99746
5.29215
4.58672
3.88118
3.17559
2.46995
1.76429
1.0586
0.352894
37.7745
33.6914
30.2828
27.9117
26.2449
24.9914
23.973
23.0891
22.2835
21.5239
20.791
20.0729
19.362
18.6535
17.9456
17.2379
16.5308
15.8253
15.1221
14.421
13.7213
13.0223
12.3231
11.6232
10.9226
10.221
9.51849
8.81525
8.11138
7.40701
6.70227
5.99723
5.29199
4.5866
3.88111
3.17554
2.46992
1.76427
1.05859
0.352893
36.1332
32.723
29.8113
27.7189
26.1914
25.001
24.0072
23.1292
22.321
21.5555
20.8159
20.0915
19.3754
18.6633
17.953
17.2438
16.5358
15.8296
15.1254
14.4233
13.7227
13.0228
12.323
11.6228
10.9219
10.2203
9.51787
8.81471
8.11095
7.40668
6.70202
5.99705
5.29186
4.58651
3.88105
3.1755
2.4699
1.76425
1.05858
0.35289
34.4831
31.8145
29.4144
27.5876
26.1798
25.036
24.0549
23.1752
22.3602
21.5865
20.8393
20.1085
19.3874
18.6717
17.959
17.2482
16.5393
15.8324
15.1276
14.4247
13.7234
13.023
12.3228
11.6224
10.9215
10.2198
9.51744
8.81436
8.11067
7.40646
6.70186
5.99694
5.29179
4.58646
3.88102
3.17548
2.46988
1.76425
1.05858
0.352887
33.0831
31.1401
29.1828
27.5539
26.2177
25.0911
24.1065
23.2174
22.3923
21.61
20.8558
20.1198
19.3949
18.6765
17.9621
17.2503
16.5407
15.8333
15.1281
14.425
13.7234
13.0228
12.3226
11.6221
10.9212
10.2196
9.51727
8.81424
8.11058
7.40641
6.70183
5.99693
5.29178
4.58647
3.88102
3.17549
2.46989
1.76425
1.05858
0.352884
32.3817
30.947
29.2069
27.6288
26.2859
25.1401
24.1382
23.2364
22.4029
21.6154
20.8582
20.1205
19.3946
18.6758
17.961
17.249
16.5393
15.8318
15.1268
14.4238
13.7225
13.0222
12.3222
11.622
10.9212
10.2197
9.51743
8.81441
8.11075
7.40656
6.70196
5.99703
5.29187
4.58653
3.88107
3.17553
2.46992
1.76427
1.0586
0.352889
30.4589
29.7954
28.6535
27.4061
26.22
25.1401
24.1616
23.2647
22.4289
21.6369
20.8752
20.1335
19.4044
18.6828
17.9658
17.2518
16.5406
15.8322
15.1267
14.4236
13.7224
13.0222
12.3224
11.6223
10.9216
10.22
9.51772
8.81465
8.11094
7.40671
6.70206
5.99711
5.29192
4.58657
3.88109
3.17554
2.46993
1.76428
1.0586
0.352897
30.5907
29.824
28.6084
27.3436
26.167
25.1032
24.139
23.2526
22.4235
21.6354
20.8756
20.1348
19.406
18.6846
17.9677
17.254
16.5431
15.8347
15.129
14.4255
13.7238
13.0232
12.3229
11.6224
10.9214
10.2198
9.51737
8.8143
8.11061
7.40642
6.70183
5.99692
5.29177
4.58645
3.88101
3.17547
2.46988
1.76424
1.05858
0.352886
31.1085
30.1624
28.7638
27.3891
26.1612
25.079
24.1119
23.2286
22.4045
21.6212
20.8654
20.1278
19.4013
18.6816
17.966
17.2531
16.5427
15.8347
15.1292
14.426
13.7243
13.0236
12.3232
11.6227
10.9216
10.2198
9.5174
8.81427
8.11056
7.40636
6.70176
5.99686
5.29172
4.58641
3.88097
3.17544
2.46986
1.76422
1.05856
0.352886
31.8411
30.6818
29.0503
27.5171
26.2005
25.0754
24.0908
23.203
22.3803
21.6008
20.8495
20.116
19.393
18.6757
17.9617
17.2499
16.5401
15.8327
15.1278
14.4251
13.724
13.0238
12.3236
11.6231
10.922
10.2202
9.51772
8.81452
8.11074
7.40648
6.70184
5.99691
5.29175
4.58642
3.88097
3.17544
2.46985
1.76422
1.05856
0.352886
32.6392
31.2725
29.4019
27.695
26.2734
25.0918
24.08
23.1816
22.3568
21.5794
20.8319
20.1025
19.3831
18.6684
17.956
17.2451
16.5359
15.8291
15.125
14.4234
13.7232
13.0237
12.3239
11.6237
10.9227
10.2209
9.51826
8.81497
8.11109
7.40674
6.70203
5.99704
5.29183
4.58648
3.88101
3.17546
2.46986
1.76423
1.05856
0.352885
33.4024
31.854
29.7641
27.891
26.364
25.1221
24.0791
23.1663
22.3367
21.5597
20.8151
20.0895
19.3735
18.661
17.9498
17.2397
16.5309
15.8245
15.1215
14.4211
13.7222
13.0235
12.3244
11.6244
10.9235
10.2217
9.51895
8.81554
8.11154
7.40709
6.70228
5.99722
5.29196
4.58656
3.88107
3.1755
2.46988
1.76424
1.05857
0.352883
34.067
32.3703
30.0953
28.078
26.4565
25.1585
24.0847
23.1568
22.3212
21.5434
20.8008
20.0784
19.3653
18.6544
17.9441
17.2343
16.5257
15.8195
15.1176
14.4188
13.7212
13.0234
12.3249
11.6252
10.9244
10.2225
9.51969
8.81615
8.11203
7.40746
6.70256
5.99742
5.2921
4.58666
3.88113
3.17554
2.46991
1.76425
1.05857
0.352879
34.5929
32.7842
30.3662
28.2351
26.5376
25.1932
24.0931
23.1516
22.3102
21.531
20.7896
20.0696
19.3589
18.6491
17.9393
17.2297
16.5211
15.8151
15.1143
14.4168
13.7204
13.0235
12.3254
11.626
10.9252
10.2233
9.52038
8.81672
8.11248
7.4078
6.70282
5.9976
5.29223
4.58675
3.88119
3.17558
2.46993
1.76426
1.05857
0.352876
34.9552
33.0719
30.5568
28.3476
26.5971
25.2198
24.1008
23.1492
22.3032
21.5227
20.7819
20.0635
19.3543
18.6452
17.9357
17.2263
16.5178
15.8119
15.1119
14.4154
13.7199
13.0236
12.3259
11.6266
10.9259
10.2239
9.52091
8.81716
8.11282
7.40807
6.70301
5.99775
5.29233
4.58682
3.88124
3.17561
2.46995
1.76427
1.05858
0.352873
35.1396
33.219
30.6549
28.4061
26.6284
25.2342
24.1053
23.1484
22.2999
21.5186
20.7781
20.0603
19.3519
18.6432
17.9339
17.2245
16.516
15.8103
15.1106
14.4147
13.7196
13.0237
12.3262
11.627
10.9263
10.2242
9.5212
8.81739
8.11301
7.40821
6.70312
5.99782
5.29239
4.58686
3.88126
3.17563
2.46996
1.76428
1.05858
0.352871
35.1396
33.219
30.6549
28.4061
26.6284
25.2342
24.1053
23.1484
22.2999
21.5186
20.7781
20.0603
19.3519
18.6432
17.9339
17.2245
16.516
15.8103
15.1106
14.4147
13.7196
13.0237
12.3262
11.627
10.9263
10.2242
9.5212
8.81739
8.11301
7.40821
6.70312
5.99782
5.29239
4.58686
3.88127
3.17563
2.46996
1.76428
1.05858
0.352871
34.9552
33.0719
30.5568
28.3476
26.5971
25.2198
24.1008
23.1492
22.3032
21.5227
20.7819
20.0634
19.3543
18.6452
17.9357
17.2263
16.5177
15.8119
15.1118
14.4154
13.7199
13.0236
12.3259
11.6266
10.9259
10.2239
9.52092
8.81716
8.11282
7.40807
6.70301
5.99775
5.29233
4.58682
3.88124
3.17561
2.46995
1.76427
1.05858
0.352873
34.5929
32.7843
30.3662
28.2351
26.5375
25.1931
24.0931
23.1516
22.3102
21.531
20.7896
20.0695
19.3588
18.649
17.9392
17.2297
16.521
15.8151
15.1142
14.4168
13.7204
13.0235
12.3254
11.626
10.9252
10.2233
9.52039
8.81672
8.11248
7.40781
6.70282
5.99761
5.29223
4.58675
3.88119
3.17558
2.46993
1.76426
1.05857
0.352876
34.067
32.3703
30.0953
28.078
26.4565
25.1585
24.0846
23.1567
22.3212
21.5433
20.8007
20.0783
19.3652
18.6543
17.944
17.2343
16.5256
15.8195
15.1176
14.4188
13.7212
13.0234
12.3249
11.6252
10.9244
10.2225
9.5197
8.81615
8.11203
7.40746
6.70256
5.99742
5.2921
4.58666
3.88113
3.17554
2.46991
1.76425
1.05857
0.352879
33.4024
31.854
29.7641
27.8909
26.364
25.1221
24.079
23.1662
22.3367
21.5596
20.8151
20.0895
19.3734
18.6609
17.9498
17.2396
16.5308
15.8244
15.1214
14.4211
13.7222
13.0235
12.3244
11.6244
10.9235
10.2217
9.51896
8.81554
8.11154
7.40709
6.70229
5.99722
5.29196
4.58656
3.88107
3.1755
2.46989
1.76424
1.05857
0.352883
32.6391
31.2725
29.4019
27.6949
26.2733
25.0917
24.08
23.1815
22.3567
21.5793
20.8318
20.1024
19.383
18.6683
17.9559
17.245
16.5359
15.829
15.125
14.4234
13.7232
13.0236
12.3239
11.6237
10.9227
10.2209
9.51826
8.81497
8.11109
7.40675
6.70203
5.99704
5.29184
4.58648
3.88101
3.17546
2.46986
1.76423
1.05856
0.352885
31.841
30.6817
29.0502
27.517
26.2004
25.0753
24.0907
23.2029
22.3803
21.6008
20.8494
20.1159
19.3929
18.6756
17.9616
17.2498
16.54
15.8326
15.1277
14.4251
13.724
13.0237
12.3236
11.6231
10.922
10.2202
9.51772
8.81452
8.11075
7.40649
6.70185
5.99691
5.29175
4.58642
3.88097
3.17544
2.46985
1.76422
1.05856
0.352886
31.1083
30.1623
28.7636
27.389
26.1611
25.0789
24.1118
23.2286
22.4044
21.6211
20.8653
20.1277
19.4012
18.6815
17.9659
17.253
16.5426
15.8347
15.1292
14.4259
13.7243
13.0236
12.3232
11.6227
10.9216
10.2198
9.5174
8.81428
8.11057
7.40637
6.70177
5.99686
5.29172
4.58641
3.88097
3.17544
2.46986
1.76422
1.05856
0.352885
30.5904
29.8237
28.6081
27.3434
26.1668
25.1031
24.1389
23.2525
22.4234
21.6353
20.8756
20.1347
19.4059
18.6845
17.9676
17.254
16.543
15.8347
15.1289
14.4255
13.7238
13.0232
12.3229
11.6224
10.9214
10.2198
9.51737
8.8143
8.11062
7.40643
6.70183
5.99692
5.29177
4.58645
3.88101
3.17547
2.46988
1.76424
1.05858
0.352886
30.4584
29.795
28.6532
27.4059
26.2198
25.14
24.1615
23.2646
22.4288
21.6368
20.8751
20.1334
19.4043
18.6827
17.9657
17.2518
16.5406
15.8322
15.1266
14.4236
13.7224
13.0222
12.3224
11.6223
10.9216
10.22
9.51772
8.81465
8.11094
7.40671
6.70207
5.99711
5.29192
4.58657
3.88109
3.17554
2.46993
1.76428
1.0586
0.352896
29.0359
28.6816
27.9347
26.9943
26.0047
25.0384
24.1211
23.2552
22.4339
21.6479
20.8878
20.1457
19.4151
18.6914
17.9719
17.2557
16.5425
15.8327
15.1264
14.4232
13.7222
13.0224
12.3229
11.6229
10.9222
10.2207
9.5183
8.81513
8.11132
7.407
6.70228
5.99726
5.29203
4.58664
3.88114
3.17557
2.46995
1.7643
1.05861
0.352904
28.9977
28.6455
27.878
26.9349
25.9557
25.0036
24.0991
23.243
22.4282
21.6459
20.8877
20.1464
19.4161
18.6928
17.9739
17.2582
16.5456
15.836
15.1296
14.4259
13.7242
13.0236
12.3234
11.623
10.922
10.2203
9.5178
8.81463
8.11087
7.40661
6.70196
5.99701
5.29183
4.58649
3.88103
3.17549
2.46989
1.76425
1.05858
0.352889
29.145
28.7825
27.9548
26.9615
25.9537
24.9893
24.0819
23.2271
22.4152
21.636
20.8805
20.1415
19.4129
18.6909
17.9729
17.2579
16.5458
15.8366
15.1304
14.4269
13.7252
13.0244
12.324
11.6233
10.9222
10.2203
9.51773
8.81451
8.11072
7.40646
6.70182
5.99689
5.29173
4.58641
3.88096
3.17544
2.46985