# vtk DataFile Version 2.0
I need something to put here
ASCII

DATASET STRUCTURED_GRID
DIMENSIONS 41 21 21
POINTS 18081 float
0.000000 0.000000 0.000000
0.100000 0.000000 0.000000
0.200000 0.000000 0.000000
0.300000 0.000000 0.000000
0.400000 0.000000 0.000000
0.500000 0.000000 0.000000
0.600000 0.000000 0.000000
0.700000 0.000000 0.000000
0.800000 0.000000 0.000000
0.900000 0.000000 0.000000
1.000000 0.000000 0.000000
1.100000 0.000000 0.000000
1.200000 0.000000 0.000000
1.300000 0.000000 0.000000
1.400000 0.000000 0.000000
1.500000 0.000000 0.000000
1.600000 0.000000 0.000000
1.700000 0.000000 0.000000
1.800000 0.000000 0.000000
1.900000 0.000000 0.000000
2.000000 0.000000 0.000000
2.100000 0.000000 0.000000
2.200000 0.000000 0.000000
2.300000 0.000000 0.000000
2.400000 0.000000 0.000000
2.500000 0.000000 0.000000
2.600000 0.000000 0.000000
2.700000 0.000000 0.000000
2.800000 0.000000 0.000000
2.900000 0.000000 0.000000
3.000000 0.000000 0.000000
3.100000 0.000000 0.000000
3.200000 0.000000 0.000000
3.300000 0.000000 0.000000
3.400000 0.000000 0.000000
3.500000 0.000000 0.000000
3.600000 0.000000 0.000000
3.700000 0.000000 0.000000
3.800000 0.000000 0.000000
3.900000 0.000000 0.000000
4.000000 0.000000 0.000000
0.000000 0.100000 0.000000
0.100000 0.100000 0.000000
0.200000 0.100000 0.000000
0.300000 0.100000 0.000000
0.400000 0.100000 0.000000
0.500000 0.100000 0.000000
0.600000 0.100000 0.000000
0.700000 0.100000 0.000000
0.800000 0.100000 0.000000
0.900000 0.100000 0.000000
1.000000 0.100000 0.000000
1.100000 0.100000 0.000000
1.200000 0.100000 0.000000
1.300000 0.100000 0.000000
1.400000 0.100000 0.000000
1.500000 0.100000 0.000000
1.600000 0.100000 0.000000
1.700000 0.100000 0.000000
1.800000 0.100000 0.000000
1.900000 0.100000 0.000000
2.000000 0.100000 0.000000
2.100000 0.100000 0.000000
2.200000 0.100000 0.000000
2.300000 0.100000 0.000000
2.400000 0.100000 0.000000
2.500000 0.100000 0.000000
2.600000 0.100000 0.000000
2.700000 0.100000 0.000000
2.800000 0.100000 0.000000
2.900000 0.100000 0.000000
3.000000 0.100000 0.000000
3.100000 0.100000 0.000000
3.200000 0.100000 0.000000
3.300000 0.100000 0.000000
3.400000 0.100000 0.000000
3.500000 0.100000 0.000000
3.600000 0.100000 0.000000
3.700000 0.100000 0.000000
3.800000 0.100000 0.000000
3.900000 0.100000 0.000000
4.000000 0.100000 0.000000
0.000000 0.200000 0.000000
0.100000 0.200000 0.000000
0.200000 0.200000 0.000000
0.300000 0.200000 0.000000
0.400000 0.200000 0.000000
0.500000 0.200000 0.000000
0.600000 0.200000 0.000000
0.700000 0.200000 0.000000
0.800000 0.200000 0.000000
0.900000 0.200000 0.000000
1.000000 0.200000 0.000000
1.100000 0.200000 0.000000
1.200000 0.200000 0.000000
1.300000 0.200000 0.000000
1.400000 0.200000 0.000000
1.500000 0.200000 0.000000
1.600000 0.200000 0.000000
1.700000 0.200000 0.000000
1.800000 0.200000 0.000000
1.900000 0.200000 0.000000
2.000000 0.200000 0.000000
2.100000 0.200000 0.000000
2.200000 0.200000 0.000000
2.300000 0.200000 0.000000
2.400000 0.200000 0.000000
2.500000 0.200000 0.000000
2.600000 0.200000 0.000000
2.700000 0.200000 0.000000
2.800000 0.200000 0.000000
2.900000 0.200000 0.000000
3.000000 0.200000 0.000000
3.100000 0.200000 0.000000
3.200000 0.200000 0.000000
3.300000 0.200000 0.000000
3.400000 0.200000 0.000000
3.500000 0.200000 0.000000
3.600000 0.200000 0.000000
3.700000 0.200000 0.000000
3.800000 0.200000 0.000000
3.900000 0.200000 0.000000
4.000000 0.200000 0.000000
0.000000 0.300000 0.000000
0.100000 0.300000 0.000000
0.200000 0.300000 0.000000
0.300000 0.300000 0.000000
0.400000 0.300000 0.000000
0.500000 0.300000 0.000000
0.600000 0.300000 0.000000
0.700000 0.300000 0.000000
0.800000 0.300000 0.000000
0.900000 0.300000 0.000000
1.000000 0.300000 0.000000
1.100000 0.300000 0.000000
1.200000 0.300000 0.000000
1.300000 0.300000 0.000000
1.400000 0.300000 0.000000
1.500000 0.300000 0.000000
1.600000 0.300000 0.000000
1.700000 0.300000 0.000000
1.800000 0.300000 0.000000
1.900000 0.300000 0.000000
2.000000 0.300000 0.000000
2.100000 0.300000 0.000000
2.200000 0.300000 0.000000
2.300000 0.300000 0.000000
2.400000 0.300000 0.000000
2.500000 0.300000 0.000000
2.600000 0.300000 0.000000
2.700000 0.300000 0.000000
2.800000 0.300000 0.000000
2.900000 0.300000 0.000000
3.000000 0.300000 0.000000
3.100000 0.300000 0.000000
3.200000 0.300000 0.000000
3.300000 0.300000 0.000000
3.400000 0.300000 0.000000
3.500000 0.300000 0.000000
3.600000 0.300000 0.000000
3.700000 0.300000 0.000000
3.800000 0.300000 0.000000
3.900000 0.300000 0.000000
4.000000 0.300000 0.000000
0.000000 0.400000 0.000000
0.100000 0.400000 0.000000
0.200000 0.400000 0.000000
0.300000 0.400000 0.000000
0.400000 0.400000 0.000000
0.500000 0.400000 0.000000
0.600000 0.400000 0.000000
0.700000 0.400000 0.000000
0.800000 0.400000 0.000000
0.900000 0.400000 0.000000
1.000000 0.400000 0.000000
1.100000 0.400000 0.000000
1.200000 0.400000 0.000000
1.300000 0.400000 0.000000
1.400000 0.400000 0.000000
1.500000 0.400000 0.000000
1.600000 0.400000 0.000000
1.700000 0.400000 0.000000
1.800000 0.400000 0.000000
1.900000 0.400000 0.000000
2.000000 0.400000 0.000000
2.100000 0.400000 0.000000
2.200000 0.400000 0.000000
2.300000 0.400000 0.000000
2.400000 0.400000 0.000000
2.500000 0.400000 0.000000
2.600000 0.400000 0.000000
2.700000 0.400000 0.000000
2.800000 0.400000 0.000000
2.900000 0.400000 0.000000
3.000000 0.400000 0.000000
3.100000 0.400000 0.000000
3.200000 0.400000 0.000000
3.300000 0.400000 0.000000
3.400000 0.400000 0.000000
3.500000 0.400000 0.000000
3.600000 0.400000 0.000000
3.700000 0.400000 0.000000
3.800000 0.400000 0.000000
3.900000 0.400000 0.000000
4.000000 0.400000 0.000000
0.000000 0.500000 0.000000
0.100000 0.500000 0.000000
0.200000 0.500000 0.000000
0.300000 0.500000 0.000000
0.400000 0.500000 0.000000
0.500000 0.500000 0.000000
0.600000 0.500000 0.000000
0.700000 0.500000 0.000000
0.800000 0.500000 0.000000
0.900000 0.500000 0.000000
1.000000 0.500000 0.000000
1.100000 0.500000 0.000000
1.200000 0.500000 0.000000
1.300000 0.500000 0.000000
1.400000 0.500000 0.000000
1.500000 0.500000 0.000000
1.600000 0.500000 0.000000
1.700000 0.500000 0.000000
1.800000 0.500000 0.000000
1.900000 0.500000 0.000000
2.000000 0.500000 0.000000
2.100000 0.500000 0.000000
2.200000 0.500000 0.000000
2.300000 0.500000 0.000000
2.400000 0.500000 0.000000
2.500000 0.500000 0.000000
2.600000 0.500000 0.000000
2.700000 0.500000 0.000000
2.800000 0.500000 0.000000
2.900000 0.500000 0.000000
3.000000 0.500000 0.000000
3.100000 0.500000 0.000000
3.200000 0.500000 0.000000
3.300000 0.500000 0.000000
3.400000 0.500000 0.000000
3.500000 0.500000 0.000000
3.600000 0.500000 0.000000
3.700000 0.500000 0.000000
3.800000 0.500000 0.000000
3.900000 0.500000 0.000000
4.000000 0.500000 0.000000
0.000000 0.600000 0.000000
0.100000 0.600000 0.000000
0.200000 0.600000 0.000000
0.300000 0.600000 0.000000
0.400000 0.600000 0.000000
0.500000 0.600000 0.000000
0.600000 0.600000 0.000000
0.700000 0.600000 0.000000
0.800000 0.600000 0.000000
0.900000 0.600000 0.000000
1.000000 0.600000 0.000000
1.100000 0.600000 0.000000
1.200000 0.600000 0.000000
1.300000 0.600000 0.000000
1.400000 0.600000 0.000000
1.500000 0.600000 0.000000
1.600000 0.600000 0.000000
1.700000 0.600000 0.000000
1.800000 0.600000 0.000000
1.900000 0.600000 0.000000
2.000000 0.600000 0.000000
2.100000 0.600000 0.000000
2.200000 0.600000 0.000000
2.300000 0.600000 0.000000
2.400000 0.600000 0.000000
2.500000 0.600000 0.000000
2.600000 0.600000 0.000000
2.700000 0.600000 0.000000
2.800000 0.600000 0.000000
2.900000 0.600000 0.000000
3.000000 0.600000 0.000000
3.100000 0.600000 0.000000
3.200000 0.600000 0.000000
3.300000 0.600000 0.000000
3.400000 0.600000 0.000000
3.500000 0.600000 0.000000
3.600000 0.600000 0.000000
3.700000 0.600000 0.000000
3.800000 0.600000 0.000000
3.900000 0.600000 0.000000
4.000000 0.600000 0.000000
0.000000 0.700000 0.000000
0.100000 0.700000 0.000000
0.200000 0.700000 0.000000
0.300000 0.700000 0.000000
0.400000 0.700000 0.000000
0.500000 0.700000 0.000000
0.600000 0.700000 0.000000
0.700000 0.700000 0.000000
0.800000 0.700000 0.000000
0.900000 0.700000 0.000000
1.000000 0.700000 0.000000
1.100000 0.700000 0.000000
1.200000 0.700000 0.000000
1.300000 0.700000 0.000000
1.400000 0.700000 0.000000
1.500000 0.700000 0.000000
1.600000 0.700000 0.000000
1.700000 0.700000 0.000000
1.800000 0.700000 0.000000
1.900000 0.700000 0.000000
2.000000 0.700000 0.000000
2.100000 0.700000 0.000000
2.200000 0.700000 0.000000
2.300000 0.700000 0.000000
2.400000 0.700000 0.000000
2.500000 0.700000 0.000000
2.600000 0.700000 0.000000
2.700000 0.700000 0.000000
2.800000 0.700000 0.000000
2.900000 0.700000 0.000000
3.000000 0.700000 0.000000
3.100000 0.700000 0.000000
3.200000 0.700000 0.000000
3.300000 0.700000 0.000000
3.400000 0.700000 0.000000
3.500000 0.700000 0.000000
3.600000 0.700000 0.000000
3.700000 0.700000 0.000000
3.800000 0.700000 0.000000
3.900000 0.700000 0.000000
4.000000 0.700000 0.000000
0.000000 0.800000 0.000000
0.100000 0.800000 0.000000
0.200000 0.800000 0.000000
0.300000 0.800000 0.000000
0.400000 0.800000 0.000000
0.500000 0.800000 0.000000
0.600000 0.800000 0.000000
0.700000 0.800000 0.000000
0.800000 0.800000 0.000000
0.900000 0.800000 0.000000
1.000000 0.800000 0.000000
1.100000 0.800000 0.000000
1.200000 0.800000 0.000000
1.300000 0.800000 0.000000
1.400000 0.800000 0.000000
1.500000 0.800000 0.000000
1.600000 0.800000 0.000000
1.700000 0.800000 0.000000
1.800000 0.800000 0.000000
1.900000 0.800000 0.000000
2.000000 0.800000 0.000000
2.100000 0.800000 0.000000
2.200000 0.800000 0.000000
2.300000 0.800000 0.000000
2.400000 0.800000 0.000000
2.500000 0.800000 0.000000
2.600000 0.800000 0.000000
2.700000 0.800000 0.000000
2.800000 0.800000 0.000000
2.900000 0.800000 0.000000
3.000000 0.800000 0.000000
3.100000 0.800000 0.000000
3.200000 0.800000 0.000000
3.300000 0.800000 0.000000
3.400000 0.800000 0.000000
3.500000 0.800000 0.000000
3.600000 0.800000 0.000000
[...]
CELL_DATA 16000
SCALARS pressure float 1
LOOKUP_TABLE default
35.4975
32.3747
30.0372
28.2922
26.9249
25.7921
24.806
23.9128
23.078
22.2787
21.4991
20.7287
19.9605
19.1909
18.4191
17.6462
16.8747
16.1074
15.3468
14.5946
13.8513
13.1166
12.3894
11.6684
10.9522
10.2396
9.52949
8.82119
8.11405
7.40767
6.70175
5.9961
5.2906
4.58518
3.87978
3.17438
2.46897
1.76356
1.05813
0.352706
37.8484
32.7344
29.9202
28.1108
26.775
25.6848
24.7333
23.865
23.0473
22.2594
21.4874
20.7219
19.9568
19.1891
18.4184
17.646
16.8747
16.1074
15.3468
14.5946
13.8513
13.1167
12.3895
11.6686
10.9524
10.2397
9.52966
8.82133
8.11417
7.40776
6.70182
5.99616
5.29064
4.58521
3.8798
3.17439
2.46898
1.76356
1.05814
0.352706
41.2069
33.7121
30.0788
28.0214
26.6344
25.5551
24.6298
23.7878
22.9921
22.2217
21.4628
20.7066
19.9477
19.1836
18.4145
17.6426
16.871
16.1032
15.3424
14.5903
13.8475
13.1135
12.3871
11.6667
10.9511
10.2389
9.52915
8.82103
8.11401
7.40769
6.7018
5.99616
5.29066
4.58523
3.87982
3.17441
2.469
1.76357
1.05814
0.352706
44.708
34.9576
30.4389
28.0526
26.5571
25.454
24.5361
23.7111
22.9339
22.1801
21.4349
20.6891
19.9371
19.1767
18.4089
17.6366
16.8639
16.0949
15.3335
14.5816
13.8397
13.107
12.382
11.663
10.9485
10.2371
9.52798
8.8203
8.11357
7.40745
6.70168
5.99611
5.29065
4.58524
3.87984
3.17444
2.46902
1.76359
1.05815
0.352707
47.9806
36.2422
30.8929
28.1668
26.5387
25.3908
24.4652
23.6476
22.8832
22.143
21.4102
20.674
19.9282
19.1707
18.403
17.6291
16.854
16.083
15.3205
14.5689
13.8284
13.0977
12.3747
11.6576
10.9447
10.2345
9.52626
8.81921
8.11291
7.40706
6.70147
5.99601
5.29062
4.58524
3.87986
3.17446
2.46904
1.7636
1.05816
0.35271
50.8466
37.4316
31.3583
28.3199
26.5593
25.359
24.4173
23.6004
22.8439
22.1141
21.3915
20.6636
19.9229
19.1669
18.3979
17.621
16.8424
16.0684
15.3045
14.5533
13.8145
13.0862
12.3659
11.6511
10.94
10.2313
9.52417
8.81788
8.11209
7.40658
6.70121
5.99589
5.29057
4.58523
3.87987
3.17448
2.46906
1.76362
1.05817
0.352714
53.2115
38.447
31.7798
28.4772
26.5989
25.3481
24.3879
23.5679
22.8159
22.0939
21.3794
20.6582
19.9211
19.1654
18.394
17.6133
16.8304
16.0528
15.2872
14.5364
13.7996
13.074
12.3565
11.6442
10.9351
10.228
9.52197
8.81647
8.11123
7.40608
6.70093
5.99574
5.29051
4.58522
3.87988
3.1745
2.46908
1.76364
1.05818
0.35272
55.0207
39.2406
32.1213
28.6138
26.6416
25.3486
24.3714
23.5473
22.7977
22.081
21.3728
20.6565
19.922
19.1656
18.3914
17.6067
16.8194
16.0384
15.2712
14.5208
13.7858
13.0628
12.3478
11.6378
10.9307
10.225
9.51996
8.81519
8.11044
7.40561
6.70067
5.99561
5.29045
4.5852
3.87989
3.17451
2.4691
1.76366
1.05819
0.352725
56.2418
39.7834
32.3601
28.7132
26.676
25.353
24.3632
23.5355
22.787
22.0739
21.3697
20.6568
19.9237
19.1666
18.3899
17.6018
16.8112
16.0273
15.2588
14.5087
13.7752
13.0541
12.3412
11.633
10.9273
10.2227
9.51844
8.81422
8.10984
7.40526
6.70047
5.99551
5.29041
4.58519
3.87989
3.17453
2.46911
1.76367
1.0582
0.35273
56.8565
40.0586
32.4825
28.7653
26.6949
25.3564
24.3599
23.5302
22.7822
22.0707
21.3686
20.6574
19.9249
19.1673
18.3892
17.5993
16.8067
16.0214
15.2521
14.5021
13.7694
13.0494
12.3376
11.6304
10.9254
10.2214
9.51763
8.81371
8.10953
7.40507
6.70037
5.99546
5.29039
4.58519
3.87989
3.17453
2.46912
1.76367
1.05821
0.352732
56.8565
40.0586
32.4825
28.7653
26.6949
25.3564
24.3599
23.5302
22.7822
22.0708
21.3687
20.6574
19.925
19.1673
18.3893
17.5993
16.8068
16.0214
15.2521
14.5022
13.7695
13.0495
12.3376
11.6304
10.9255
10.2215
9.51765
8.81372
8.10954
7.40509
6.70038
5.99547
5.29039
4.58519
3.8799
3.17453
2.46912
1.76367
1.05821
0.352732
56.2418
39.7834
32.3601
28.7132
26.676
25.353
24.3632
23.5355
22.787
22.0739
21.3698
20.6569
19.9238
19.1667
18.3901
17.602
16.8113
16.0275
15.2589
14.5088
13.7754
13.0543
12.3413
11.6331
10.9274
10.2227
9.51851
8.81428
8.10989
7.40529
6.7005
5.99553
5.29042
4.5852
3.8799
3.17453
2.46911
1.76367
1.0582
0.352729
55.0207
39.2406
32.1213
28.6138
26.6416
25.3486
24.3714
23.5473
22.7977
22.0811
21.3729
20.6567
19.9221
19.1658
18.3917
17.6069
16.8197
16.0387
15.2714
14.521
13.7861
13.063
12.348
11.638
10.9308
10.2251
9.52008
8.81528
8.11051
7.40567
6.70071
5.99564
5.29047
4.58522
3.8799
3.17452
2.4691
1.76366
1.05819
0.352724
53.2115
38.447
31.7798
28.4772
26.5989
25.3481
24.3879
23.5679
22.816
22.0939
21.3796
20.6584
19.9214
19.1657
18.3943
17.6136
16.8307
16.0532
15.2876
14.5368
13.8
13.0744
12.3568
11.6444
10.9353
10.2282
9.52212
8.81659
8.11132
7.40615
6.70098
5.99578
5.29054
4.58524
3.87989
3.1745
2.46908
1.76364
1.05818
0.352718
50.8467
37.4317
31.3583
28.3199
26.5593
25.359
24.4174
23.6004
22.8439
22.1142
21.3917
20.6638
19.9231
19.1672
18.3982
17.6214
16.8428
16.0688
15.3049
14.5537
13.8149
13.0866
12.3662
11.6514
10.9403
10.2316
9.52434
8.81802
8.1122
7.40667
6.70127
5.99593
5.2906
4.58525
3.87988
3.17449
2.46906
1.76362
1.05817
0.352712
47.9806
36.2422
30.8929
28.1667
26.5387
25.3908
24.4652
23.6477
22.8833
22.1431
21.4103
20.6742
19.9285
19.171
18.4034
17.6295
16.8544
16.0834
15.321
14.5694
13.8288
13.0981
12.3751
11.6579
10.9449
10.2348
9.52645
8.81936
8.11303
7.40715
6.70154
5.99606
5.29065
4.58526
3.87987
3.17446
2.46904
1.7636
1.05815
0.352707
44.708
34.9576
30.4389
28.0526
26.5571
25.454
24.5361
23.7111
22.934
22.1802
21.4351
20.6893
19.9373
19.177
18.4093
17.637
16.8643
16.0954
15.3339
14.582
13.8402
13.1074
12.3824
11.6634
10.9488
10.2374
9.52818
8.82046
8.1137
7.40754
6.70174
5.99616
5.29068
4.58526
3.87985
3.17444
2.46902
1.76359
1.05814
0.352703
41.2068
33.712
30.0788
28.0213
26.6344
25.5551
24.6298
23.7878
22.9922
22.2218
21.4629
20.7068
19.9479
19.1839
18.4149
17.643
16.8714
16.1037
15.3428
14.5907
13.8479
13.1139
12.3874
11.6671
10.9514
10.2392
9.52934
8.82118
8.11413
7.40778
6.70186
5.99621
5.29069
4.58524
3.87983
3.17442
2.469
1.76357
1.05814
0.352702
37.8482
32.7343
29.9201
28.1107
26.7749
25.6847
24.7334
23.865
23.0473
22.2595
21.4876
20.7221
19.9571
19.1894
18.4187
17.6464
16.8751
16.1078
15.3472
14.595
13.8517
13.1171
12.3899
11.6689
10.9526
10.24
9.52985
8.82148
8.11429
7.40785
6.70188
5.9962
5.29067
4.58522
3.8798
3.17439
2.46898
1.76356
1.05813
0.352702
35.4972
32.3745
30.0371
28.2921
26.9249
25.7921
24.8061
23.9129
23.0781
22.2788
21.4993
20.7289
19.9607
19.1912
18.4194
17.6466
16.8752
16.1079
15.3472
14.595
13.8517
13.1169
12.3897
11.6687
10.9524
10.2398
9.52967
8.82133
8.11416
7.40775
6.7018
5.99614
5.29063
4.58519
3.87978
3.17438
2.46897
1.76355
1.05813
0.352702
33.1298
31.6956
29.9555
28.3766
27.0314
25.8811
24.8719
23.9591
23.1096
22.2998
21.5131
20.7378
19.9663
19.1945
18.4211
17.6472
16.875
16.1073
15.3464
14.5942
13.8509
13.1163
12.3892
11.6683
10.9522
10.2396
9.52956
8.82126
8.11412
7.40773
6.7018
5.99614
5.29063
4.5852
3.87979
3.17439
2.46898
1.76356
1.05814
0.352706
33.8306
31.8882
29.9308
28.3008
26.962
25.8305
24.8383
23.9377
23.0961
22.2912
21.5074
20.7338
19.9636
19.193
18.4209
17.6483
16.8773
16.1105
15.3503
14.5982
13.8549
13.12
12.3924
11.6709
10.9543
10.2412
9.53078
8.82216
8.11477
7.40818
6.70211
5.99635
5.29077
4.58529
3.87985
3.17443
2.46901
1.76358
1.05814
0.352708
35.2301
32.5623
30.1622
28.3344
26.9239
25.7753
24.7866
23.8955
23.0642
22.2681
21.4913
20.7231
19.9567
19.1886
18.418
17.6462
16.8757
16.1091
15.3491
14.5974
13.8544
13.1197
12.3924
11.6711
10.9545
10.2415
9.53109
8.82244
8.11501
7.40839
6.70228
5.99648
5.29087
4.58536
3.87991
3.17447
2.46903
1.76359
1.05815
0.352709
36.8804
33.4712
30.5596
28.4663
26.9363
25.7415
24.7405
23.8517
23.0279
22.2406
21.4719
20.7101
19.9482
19.1828
18.4134
17.6418
16.8708
16.1038
15.3436
14.5921
13.8498
13.116
12.3896
11.6691
10.9532
10.2407
9.53061
8.82219
8.11491
7.40837
6.70231
5.99653
5.29093
4.58542
3.87995
3.1745
2.46906
1.76361
1.05816
0.352712
38.5226
34.4405
31.0321
28.6604
26.9916
25.7343
24.7095
23.8158
22.9956
22.2152
21.4538
20.6983
19.9407
19.1773
18.4082
17.6358
16.8634
16.0951
15.3344
14.5832
13.8418
13.1095
12.3845
11.6654
10.9506
10.2389
9.52948
8.82151
8.11452
7.40818
6.70223
5.99652
5.29095
4.58545
3.87999
3.17454
2.46909
1.76364
1.05818
0.352716
40.0132
35.3577
31.5085
28.8779
27.0722
25.7479
24.694
23.7907
22.9708
22.1951
21.4397
20.6896
19.9355
19.1732
18.4034
17.6291
16.8545
16.0842
15.3225
14.5717
13.8316
13.101
12.3779
11.6605
10.9471
10.2366
9.52794
8.82054
8.11394
7.40785
6.70206
5.99645
5.29094
4.58547
3.88002
3.17457
2.46912
1.76366
1.05819
0.352722
41.2701
36.1519
31.9376
29.0864
27.1597
25.7732
24.6899
23.7754
22.9538
22.181
21.4303
20.6845
19.9328
19.1707
18.3993
17.6225
16.8451
16.0724
15.3096
14.5591
13.8205
13.0918
12.3708
11.6552
10.9433
10.234
9.52622
8.81945
8.11328
7.40747
6.70186
5.99636
5.29091
4.58547
3.88004
3.17459
2.46914
1.76368
1.0582
0.352729
42.2449
36.7782
32.2847
29.2617
27.2385
25.8008
24.6924
23.7674
22.9433
22.1723
21.4249
20.6822
19.9321
19.1695
18.3963
17.6169
16.8366
16.0614
15.2975
14.5473
13.8101
13.0832
12.3641
11.6502
10.9398
10.2316
9.52462
8.81842
8.11265
7.4071
6.70166
5.99626
5.29087
4.58547
3.88005
3.17461
2.46916
1.76369
1.05822
0.352735
42.9084
37.209
32.5273
29.3871
27.2972
25.8234
24.6968
23.7639
22.9377
22.1675
21.4223
20.6817
19.9324
19.1692
18.3943
17.6127
16.8301
16.053
15.2882
14.5383
13.8021
13.0767
12.359
11.6465
10.9371
10.2297
9.52339
8.81764
8.11217
7.40682
6.70151
5.99619
5.29084
4.58547
3.88006
3.17463
2.46917
1.7637
1.05822
0.35274
43.2438
37.4281
32.6517
29.4523
27.3284
25.836
24.6999
23.7627
22.9353
22.1655
21.4214
20.6817
19.9328
19.1692
18.3933
17.6105
16.8267
16.0485
15.2832
14.5334
13.7977
13.0731
12.3562
11.6444
10.9357
10.2287
9.52274
8.81722
8.11191
7.40667
6.70142
5.99615
5.29083
4.58546
3.88007
3.17464
2.46918
1.76371
1.05823
0.352743
43.2438
37.4281
32.6517
29.4523
27.3284
25.836
24.6999
23.7628
22.9353
22.1655
21.4214
20.6817
19.9329
19.1692
18.3933
17.6106
16.8267
16.0486
15.2833
14.5334
13.7978
13.0731
12.3563
11.6445
10.9357
10.2288
9.52276
8.81724
8.11192
7.40668
6.70143
5.99615
5.29083
4.58547
3.88007
3.17464
2.46918
1.76371
1.05823
0.352743
42.9084
37.2091
32.5273
29.3871
27.2972
25.8234
24.6969
23.7639
22.9377
22.1676
21.4224
20.6817
19.9325
19.1693
18.3944
17.6129
16.8303
16.0532
15.2884
14.5384
13.8022
13.0768
12.3591
11.6466
10.9372
10.2298
9.52346
8.81769
8.11221
7.40685
6.70153
5.9962
5.29085
4.58547
3.88007
3.17463
2.46918
1.7637
1.05822
0.352739
42.245
36.7783
32.2847
29.2617
27.2385
25.8008
24.6924
23.7674
22.9434
22.1724
21.425
20.6823
19.9323
19.1697
18.3965
17.6171
16.8368
16.0617
15.2978
14.5476
13.8103
13.0835
12.3643
11.6504
10.94
10.2317
9.52473
8.81851
8.11272
7.40715
6.7017
5.99629
5.29089
4.58548
3.88006
3.17462
2.46916
1.76369
1.05821
0.352734
41.2702
36.1519
31.9376
29.0864
27.1597
25.7732
24.6899
23.7754
22.9538
22.1811
21.4304
20.6846
19.933
19.1709
18.3996
17.6228
16.8454
16.0727
15.3099
14.5594
13.8208
13.0921
12.371
11.6554
10.9435
10.2342
9.52636
8.81956
8.11337
7.40754
6.70191
5.9964
5.29093
4.58549
3.88005
3.1746
2.46914
1.76368
1.0582
0.352727
40.0132
35.3578
31.5085
28.8779
27.0722
25.748
24.694
23.7907
22.9709
22.1952
21.4399
20.6898
19.9357
19.1735
18.4037
17.6294
16.8548
16.0845
15.3229
14.572
13.832
13.1013
12.3782
11.6608
10.9474
10.2368
9.5281
8.82067
8.11405
7.40793
6.70212
5.9965
5.29097
4.58549
3.88003
3.17458
2.46912
1.76366
1.05819
0.352719
38.5226
34.4405
31.0322
28.6604
26.9916
25.7343
24.7096
23.8159
22.9957
22.2153
21.4539
20.6985
19.9409
19.1776
18.4086
17.6361
16.8638
16.0955
15.3348
14.5836
13.8422
13.1098
12.3848
11.6657
10.9509
10.2392
9.52966
8.82166
8.11464
7.40826
6.70229
5.99657
5.29098
4.58547
3.88
3.17455
2.46909
1.76363
1.05817
0.352713
36.8804
33.4711
30.5595
28.4663
26.9363
25.7415
24.7405
23.8518
23.028
22.2407
21.472
20.7103
19.9485
19.1831
18.4137
17.6421
16.8712
16.1042
15.344
14.5925
13.8502
13.1164
12.3899
11.6694
10.9535
10.2409
9.53079
8.82234
8.11503
7.40846
6.70238
5.99658
5.29096
4.58544
3.87996
3.17451
2.46906
1.76361
1.05816
0.352708
35.23
32.5622
30.1622
28.3343
26.9239
25.7753
24.7866
23.8956
23.0642
22.2682
21.4915
20.7233
19.9569
19.1889
18.4183
17.6466
16.8761
16.1096
15.3496
14.5978
13.8548
13.1201
12.3927
11.6714
10.9548
10.2418
9.53128
8.82259
8.11513
7.40848
6.70234
5.99653
5.2909
4.58538
3.87991
3.17447
2.46903
1.76359
1.05815
0.352705
33.8304
31.888
29.9307
28.3007
26.9619
25.8305
24.8383
23.9377
23.0962
22.2913
21.5075
20.734
19.9639
19.1933
18.4213
17.6487
16.8777
16.1109
15.3507
14.5987
13.8553
13.1203
12.3927
11.6712
10.9545
10.2415
9.53096
8.8223
8.11488
7.40827
6.70217
5.99639
5.2908
4.5853
3.87986
3.17443
2.469
1.76357
1.05814
0.352704
33.1294
31.6953
29.9553
28.3765
27.0313
25.8811
24.872
23.9591
23.1097
22.2999
21.5133
20.738
19.9665
19.1948
18.4215
17.6476
16.8754
16.1077
15.3469
14.5946
13.8513
13.1167
12.3896
11.6686
10.9524
10.2398
9.52973
8.82139
8.11422
7.4078
6.70185
5.99617
5.29065
4.58521
3.87979
3.17439
2.46898
1.76355
1.05813
0.352701
31.2066
30.544
29.4024
28.1544
26.9662
25.8823
24.8969
23.9895
23.1382
22.3246
21.5337
20.7544
19.9793
19.2039
18.4272
17.6502
16.8753
16.1055
15.3434
14.5905
13.8474
13.1132
12.3867
11.6664
10.9508
10.2387
9.52895
8.82087
8.11389
7.4076
6.70173
5.99612
5.29063
4.58521
3.87981
3.1744
2.46899
1.76357
1.05814
0.352705
31.3376
30.5718
29.3563
28.0904
26.9112
25.8426
24.8708
23.973
23.1276
22.3171
21.5278
20.7495
19.9753
19.2014
18.4267
17.652
16.8794
16.1114
15.3505
14.5981
13.8548
13.1199
12.3924
11.6711
10.9545
10.2415
9.53103
8.82239
8.11497
7.40835
6.70225
5.99646
5.29086
4.58535
3.8799
3.17446
2.46903
1.76359
1.05815
0.352709
31.8548
30.9099
29.5112
28.1353
26.9045
25.8173
24.8423
23.9474
23.1067
22.3009
21.5157
20.7407
19.9691
19.1973
18.4243
17.6509
16.8794
16.1123
15.352
14.6001
13.8569
13.1221
12.3945
11.673
10.9561
10.2428
9.5321
8.82322
8.1156
7.40883
6.7026
5.99671
5.29104
4.58548
3.87998
3.17452
2.46907
1.76362
1.05816
0.352711
32.5874
31.4293
29.7979
28.2634
26.944
25.814
24.8217
23.9226
23.0838
22.2823
21.5018
20.731
19.9626
19.1926
18.4205
17.6475
16.876
16.1088
15.3486
14.5972
13.8547
13.1205
12.3936
11.6725
10.956
10.2429
9.53229
8.82346
8.11585
7.40905
6.70279
5.99687
5.29117
4.58558
3.88006
3.17458
2.46911
1.76364
1.05818
0.352715
33.3863
32.021
30.1505
28.4424
27.0182
25.832
24.8133
23.9042
23.0642
22.2655
21.4894
20.7229
19.9573
19.1885
18.4163
17.6425
16.8699
16.1016
15.3411
14.5902
13.8488
13.1159
12.3902
11.6702
10.9544
10.242
9.53177
8.82321
8.11576
7.40906
6.70285
5.99695
5.29125
4.58565
3.88012
3.17463
2.46915
1.76367
1.0582
0.352721
34.1512
32.6039
30.5141
28.64
27.1109
25.8651
24.8158
23.8936
23.05
22.2529
21.4805
20.7177
19.9543
19.1855
18.4121
17.6367
16.8619
16.0917
15.3306
14.5803
13.8404
13.1092
12.3852
11.6666
10.952
10.2403
9.53076
8.82262
8.11545
7.40892
6.70281
5.99697
5.29129
4.58571
3.88018
3.17467
2.46918
1.7637
1.05821
0.352728
34.8178
33.122
30.8471
28.8291
27.2059
25.9047
24.8257
23.8895
23.0414
22.2448
21.4752
20.7156
19.9538
19.1838
18.4084
17.6307
16.8533
16.0805
15.3186
14.5691
13.8309
13.1017
12.3795
11.6624
10.9491
10.2384
9.52952
8.82186
8.11502
7.4087
6.70272
5.99695
5.29131
4.58574
3.88022
3.17471
2.46922
1.76372
1.05823
0.352737
35.3458
33.5378
31.1198
28.9882
27.2894
25.9426
24.8382
23.8897
23.037
22.2403
21.473
20.7158
19.9549
19.1831
18.4054
17.6254
16.8454
16.0698
15.3071
14.5585
13.8219
13.0946
12.3741
11.6585
10.9463
10.2366
9.52832
8.82111
8.11458
7.40846
6.7026
5.99691
5.29131
4.58576
3.88025
3.17474
2.46924
1.76374
1.05824
0.352745
35.7098
33.8269
31.3118
29.1024
27.3509
25.9718
24.8492
23.8915
23.0353
22.2384
21.4724
20.7167
19.9563
19.1829
18.4033
17.6214
16.8394
16.0616
15.2982
14.5503
13.8149
13.089
12.3699
11.6554
10.9442
10.2351
9.52738
8.82052
8.11423
7.40826
6.70251
5.99687
5.29131
4.58578
3.88027
3.17476
2.46926
1.76376
1.05826
0.352752
35.8951
33.9748
31.4108
29.1617
27.3834
25.9876
24.8555
23.893
23.0349
22.2378
21.4724
20.7175
19.9572
19.1829
18.4022
17.6193
16.8361
16.0572
15.2935
14.5458
13.8112
13.086
12.3676
11.6538
10.9431
10.2343
9.52687
8.82021
8.11404
7.40816
6.70246
5.99685
5.2913
4.58578
3.88028
3.17477
2.46927
1.76377
1.05826
0.352755
35.8951
33.9748
31.4108
29.1618
27.3834
25.9876
24.8556
23.893
23.0349
22.2378
21.4724
20.7175
19.9572
19.1829
18.4022
17.6193
16.8362
16.0573
15.2935
14.5459
13.8112
13.0861
12.3677
11.6538
10.9431
10.2344
9.52689
8.82023
8.11405
7.40817
6.70247
5.99686
5.29131
4.58579
3.88028
3.17477
2.46927
1.76377
1.05826
0.352755
35.7098
33.8269
31.3119
29.1024
27.3509
25.9718
24.8492
23.8915
23.0353
22.2384
21.4724
20.7168
19.9564
19.183
18.4034
17.6216
16.8395
16.0618
15.2984
14.5504
13.8151
13.0892
12.37
11.6556
10.9443
10.2352
9.52744
8.82058
8.11427
7.4083
6.70253
5.99689
5.29132
4.58579
3.88027
3.17476
2.46926
1.76376
1.05825
0.352751
35.3459
33.5378
31.1198
28.9883
27.2895
25.9426
24.8383
23.8897
23.037
22.2404
21.473
20.7159
19.9551
19.1833
18.4056
17.6256
16.8456
16.07
15.3073
14.5588
13.8221
13.0948
12.3743
11.6587
10.9465
10.2367
9.52842
8.8212
8.11464
7.40851
6.70264
5.99694
5.29133
4.58578
3.88025
3.17475
2.46924
1.76374
1.05824
0.352743
34.8179
33.1221
30.8472
28.8291
27.2059
25.9048
24.8257
23.8895
23.0414
22.2448
21.4753
20.7157
19.954
19.1841
18.4087
17.631
16.8536
16.0807
15.3189
14.5694
13.8312
13.102
12.3797
11.6626
10.9493
10.2386
9.52966
8.82197
8.1151
7.40876
6.70277
5.99699
5.29133
4.58576
3.88023
3.17472
2.46922
1.76372
1.05823
0.352734
34.1513
32.6039
30.5141
28.6401
27.1109
25.8651
24.8159
23.8936
23.0501
22.253
21.4806
20.7178
19.9546
19.1857
18.4124
17.637
16.8622
16.092
15.3309
14.5807
13.8407
13.1096
12.3855
11.6668
10.9522
10.2405
9.53092
8.82275
8.11555
7.409
6.70287
5.99701
5.29132
4.58573
3.88019
3.17468
2.46919
1.7637
1.05821
0.352725
33.3864
32.021
30.1505
28.4424
27.0182
25.832
24.8133
23.9042
23.0642
22.2656
21.4896
20.7231
19.9575
19.1887
18.4166
17.6429
16.8702
16.102
15.3415
14.5906
13.8491
13.1163
12.3905
11.6704
10.9547
10.2422
9.53194
8.82335
8.11587
7.40915
6.70292
5.997
5.29128
4.58567
3.88014
3.17463
2.46915
1.76367
1.05819
0.352717
32.5874
31.4293
29.7978
28.2634
26.944
25.814
24.8217
23.9227
23.0839
22.2824
21.5019
20.7312
19.9628
19.1929
18.4209
17.6479
16.8764
16.1092
15.349
14.5976
13.8551
13.1209
12.3939
11.6728
10.9562
10.2431
9.53247
8.8236
8.11596
7.40914
6.70286
5.99692
5.2912
4.5856
3.88007
3.17458
2.46911
1.76364
1.05818
0.35271
31.8547
30.9097
29.5111
28.1352
26.9044
25.8173
24.8423
23.9474
23.1068
22.301
21.5158
20.7409
19.9694
19.1976
18.4246
17.6513
16.8798
16.1127
15.3525
14.6005
13.8573
13.1225
12.3949
11.6733
10.9564
10.243
9.53228
8.82337
8.11572
7.40891
6.70266
5.99676
5.29106
4.58549
3.87999
3.17452
2.46907
1.76361
1.05816
0.352706
31.3374
30.5716
29.3561
28.0903
26.9111
25.8426
24.8708
23.973
23.1277
22.3172
21.5279
20.7497
19.9756
19.2017
18.4271
17.6524
16.8798
16.1118
15.3509
14.5986
13.8552
13.1202
12.3928
11.6714
10.9547
10.2417
9.5312
8.82252
8.11507
7.40843
6.7023
5.9965
5.29088
4.58536
3.8799
3.17446
2.46902
1.76358
1.05814
0.352703
31.2063
30.5436
29.4021
28.1542
26.9661
25.8822
24.8969
23.9895
23.1383
22.3247
21.5338
20.7546
19.9795
19.2042
18.4275
17.6506
16.8757
16.1059
15.3438
14.591
13.8478
13.1136
12.387
11.6667
10.9511
10.2389
9.5291
8.821
8.11398
7.40767
6.70178
5.99614
5.29064
4.58521
3.8798
3.1744
2.46898
1.76356
1.05813
0.352698
29.7843
29.4309
28.6847
27.7439
26.7528
25.783
24.8597
23.9843
23.1486
22.3418
21.5532
20.7736
19.9961
19.2171
18.4359
17.6542
16.875
16.1018
15.3374
14.5837
13.8408
13.1074
12.382
11.6629
10.9482
10.2369
9.52775
8.8201
8.11341
7.40732
6.70158
5.99604
5.2906
4.5852
3.87981
3.17442
2.46901
1.76358
1.05814
0.352704
29.7451
29.3939
28.6267
27.6827
26.7011
25.7446
24.8329
23.9659
23.1354
22.3313
21.544
20.7652
19.9891
19.2124
18.4343
17.6562
16.8806
16.1102
15.3477
14.5947
13.8513
13.1168
12.39
11.6693
10.9533
10.2407
9.53054
8.82212
8.11484
7.40831
6.70225
5.99649
5.2909
4.58539
3.87993
3.17449
2.46905
1.76361
1.05816
0.35271
29.8914
29.5303
28.7026
27.7082
26.6975
25.7283
24.8131
23.947
23.119
22.3177
21.533
20.7567
19.9828
19.208
18.4318
17.6557
16.8817
16.1127
15.3513
14.5989
13.8558
13.1212
12.394
11.6727
10.9561
10.2429
9.5323
8.82345
8.11583
7.40903
6.70277
5.99686
5.29115
4.58557
3.88005