# vtk DataFile Version 2.0
I need something to put here
ASCII

DATASET STRUCTURED_GRID
DIMENSIONS 41 21 21
POINTS 18081 float
0.000000 0.000000 0.000000
0.100000 0.000000 0.000000
0.200000 0.000000 0.000000
0.300000 0.000000 0.000000
0.400000 0.000000 0.000000
0.500000 0.000000 0.000000
0.600000 0.000000 0.000000
0.700000 0.000000 0.000000
0.800000 0.000000 0.000000
0.900000 0.000000 0.000000
1.000000 0.000000 0.000000
1.100000 0.000000 0.000000
1.200000 0.000000 0.000000
1.300000 0.000000 0.000000
1.400000 0.000000 0.000000
1.500000 0.000000 0.000000
1.600000 0.000000 0.000000
1.700000 0.000000 0.000000
1.800000 0.000000 0.000000
1.900000 0.000000 0.000000
2.000000 0.000000 0.000000
2.100000 0.000000 0.000000
2.200000 0.000000 0.000000
2.300000 0.000000 0.000000
2.400000 0.000000 0.000000
2.500000 0.000000 0.000000
2.600000 0.000000 0.000000
2.700000 0.000000 0.000000
2.800000 0.000000 0.000000
2.900000 0.000000 0.000000
3.000000 0.000000 0.000000
3.100000 0.000000 0.000000
3.200000 0.000000 0.000000
3.300000 0.000000 0.000000
3.400000 0.000000 0.000000
3.500000 0.000000 0.000000
3.600000 0.000000 0.000000
3.700000 0.000000 0.000000
3.800000 0.000000 0.000000
3.900000 0.000000 0.000000
4.000000 0.000000 0.000000
0.000000 0.100000 0.000000
0.100000 0.100000 0.000000
0.200000 0.100000 0.000000
0.300000 0.100000 0.000000
0.400000 0.100000 0.000000
0.500000 0.100000 0.000000
0.600000 0.100000 0.000000
0.700000 0.100000 0.000000
0.800000 0.100000 0.000000
0.900000 0.100000 0.000000
1.000000 0.100000 0.000000
1.100000 0.100000 0.000000
1.200000 0.100000 0.000000
1.300000 0.100000 0.000000
1.400000 0.100000 0.000000
1.500000 0.100000 0.000000
1.600000 0.100000 0.000000
1.700000 0.100000 0.000000
1.800000 0.100000 0.000000
1.900000 0.100000 0.000000
2.000000 0.100000 0.000000
2.100000 0.100000 0.000000
2.200000 0.100000 0.000000
2.300000 0.100000 0.000000
2.400000 0.100000 0.000000
2.500000 0.100000 0.000000
2.600000 0.100000 0.000000
2.700000 0.100000 0.000000
2.800000 0.100000 0.000000
2.900000 0.100000 0.000000
3.000000 0.100000 0.000000
3.100000 0.100000 0.000000
3.200000 0.100000 0.000000
3.300000 0.100000 0.000000
3.400000 0.100000 0.000000
3.500000 0.100000 0.000000
3.600000 0.100000 0.000000
3.700000 0.100000 0.000000
3.800000 0.100000 0.000000
3.900000 0.100000 0.000000
4.000000 0.100000 0.000000
0.000000 0.200000 0.000000
0.100000 0.200000 0.000000
0.200000 0.200000 0.000000
0.300000 0.200000 0.000000
0.400000 0.200000 0.000000
0.500000 0.200000 0.000000
0.600000 0.200000 0.000000
0.700000 0.200000 0.000000
0.800000 0.200000 0.000000
0.900000 0.200000 0.000000
1.000000 0.200000 0.000000
1.100000 0.200000 0.000000
1.200000 0.200000 0.000000
1.300000 0.200000 0.000000
1.400000 0.200000 0.000000
1.500000 0.200000 0.000000
1.600000 0.200000 0.000000
1.700000 0.200000 0.000000
1.800000 0.200000 0.000000
1.900000 0.200000 0.000000
2.000000 0.200000 0.000000
2.100000 0.200000 0.000000
2.200000 0.200000 0.000000
2.300000 0.200000 0.000000
2.400000 0.200000 0.000000
2.500000 0.200000 0.000000
2.600000 0.200000 0.000000
2.700000 0.200000 0.000000
2.800000 0.200000 0.000000
2.900000 0.200000 0.000000
3.000000 0.200000 0.000000
3.100000 0.200000 0.000000
3.200000 0.200000 0.000000
3.300000 0.200000 0.000000
3.400000 0.200000 0.000000
3.500000 0.200000 0.000000
3.600000 0.200000 0.000000
3.700000 0.200000 0.000000
3.800000 0.200000 0.000000
3.900000 0.200000 0.000000
4.000000 0.200000 0.000000
0.000000 0.300000 0.000000
0.100000 0.300000 0.000000
0.200000 0.300000 0.000000
0.300000 0.300000 0.000000
0.400000 0.300000 0.000000
0.500000 0.300000 0.000000
0.600000 0.300000 0.000000
0.700000 0.300000 0.000000
0.800000 0.300000 0.000000
0.900000 0.300000 0.000000
1.000000 0.300000 0.000000
1.100000 0.300000 0.000000
1.200000 0.300000 0.000000
1.300000 0.300000 0.000000
1.400000 0.300000 0.000000
1.500000 0.300000 0.000000
1.600000 0.300000 0.000000
1.700000 0.300000 0.000000
1.800000 0.300000 0.000000
1.900000 0.300000 0.000000
2.000000 0.300000 0.000000
2.100000 0.300000 0.000000
2.200000 0.300000 0.000000
2.300000 0.300000 0.000000
2.400000 0.300000 0.000000
2.500000 0.300000 0.000000
2.600000 0.300000 0.000000
2.700000 0.300000 0.000000
2.800000 0.300000 0.000000
2.900000 0.300000 0.000000
3.000000 0.300000 0.000000
3.100000 0.300000 0.000000
3.200000 0.300000 0.000000
3.300000 0.300000 0.000000
3.400000 0.300000 0.000000
3.500000 0.300000 0.000000
3.600000 0.300000 0.000000
3.700000 0.300000 0.000000
3.800000 0.300000 0.000000
3.900000 0.300000 0.000000
4.000000 0.300000 0.000000
0.000000 0.400000 0.000000
0.100000 0.400000 0.000000
0.200000 0.400000 0.000000
0.300000 0.400000 0.000000
0.400000 0.400000 0.000000
0.500000 0.400000 0.000000
0.600000 0.400000 0.000000
0.700000 0.400000 0.000000
0.800000 0.400000 0.000000
0.900000 0.400000 0.000000
1.000000 0.400000 0.000000
1.100000 0.400000 0.000000
1.200000 0.400000 0.000000
1.300000 0.400000 0.000000
1.400000 0.400000 0.000000
1.500000 0.400000 0.000000
1.600000 0.400000 0.000000
1.700000 0.400000 0.000000
1.800000 0.400000 0.000000
1.900000 0.400000 0.000000
2.000000 0.400000 0.000000
2.100000 0.400000 0.000000
2.200000 0.400000 0.000000
2.300000 0.400000 0.000000
2.400000 0.400000 0.000000
2.500000 0.400000 0.000000
2.600000 0.400000 0.000000
2.700000 0.400000 0.000000
2.800000 0.400000 0.000000
2.900000 0.400000 0.000000
3.000000 0.400000 0.000000
3.100000 0.400000 0.000000
3.200000 0.400000 0.000000
3.300000 0.400000 0.000000
3.400000 0.400000 0.000000
3.500000 0.400000 0.000000
3.600000 0.400000 0.000000
3.700000 0.400000 0.000000
3.800000 0.400000 0.000000
3.900000 0.400000 0.000000
4.000000 0.400000 0.000000
0.000000 0.500000 0.000000
0.100000 0.500000 0.000000
0.200000 0.500000 0.000000
0.300000 0.500000 0.000000
0.400000 0.500000 0.000000
0.500000 0.500000 0.000000
0.600000 0.500000 0.000000
0.700000 0.500000 0.000000
0.800000 0.500000 0.000000
0.900000 0.500000 0.000000
1.000000 0.500000 0.000000
1.100000 0.500000 0.000000
1.200000 0.500000 0.000000
1.300000 0.500000 0.000000
1.400000 0.500000 0.000000
1.500000 0.500000 0.000000
1.600000 0.500000 0.000000
1.700000 0.500000 0.000000
1.800000 0.500000 0.000000
1.900000 0.500000 0.000000
2.000000 0.500000 0.000000
2.100000 0.500000 0.000000
2.200000 0.500000 0.000000
2.300000 0.500000 0.000000
2.400000 0.500000 0.000000
2.500000 0.500000 0.000000
2.600000 0.500000 0.000000
2.700000 0.500000 0.000000
2.800000 0.500000 0.000000
2.900000 0.500000 0.000000
3.000000 0.500000 0.000000
3.100000 0.500000 0.000000
3.200000 0.500000 0.000000
3.300000 0.500000 0.000000
3.400000 0.500000 0.000000
3.500000 0.500000 0.000000
3.600000 0.500000 0.000000
3.700000 0.500000 0.000000
3.800000 0.500000 0.000000
3.900000 0.500000 0.000000
4.000000 0.500000 0.000000
0.000000 0.600000 0.000000
0.100000 0.600000 0.000000
0.200000 0.600000 0.000000
0.300000 0.600000 0.000000
0.400000 0.600000 0.000000
0.500000 0.600000 0.000000
0.600000 0.600000 0.000000
0.700000 0.600000 0.000000
0.800000 0.600000 0.000000
0.900000 0.600000 0.000000
1.000000 0.600000 0.000000
1.100000 0.600000 0.000000
1.200000 0.600000 0.000000
1.300000 0.600000 0.000000
1.400000 0.600000 0.000000
1.500000 0.600000 0.000000
1.600000 0.600000 0.000000
1.700000 0.600000 0.000000
1.800000 0.600000 0.000000
1.900000 0.600000 0.000000
2.000000 0.600000 0.000000
2.100000 0.600000 0.000000
2.200000 0.600000 0.000000
2.300000 0.600000 0.000000
2.400000 0.600000 0.000000
2.500000 0.600000 0.000000
2.600000 0.600000 0.000000
2.700000 0.600000 0.000000
2.800000 0.600000 0.000000
2.900000 0.600000 0.000000
3.000000 0.600000 0.000000
3.100000 0.600000 0.000000
3.200000 0.600000 0.000000
3.300000 0.600000 0.000000
3.400000 0.600000 0.000000
3.500000 0.600000 0.000000
3.600000 0.600000 0.000000
3.700000 0.600000 0.000000
3.800000 0.600000 0.000000
3.900000 0.600000 0.000000
4.000000 0.600000 0.000000
0.000000 0.700000 0.000000
0.100000 0.700000 0.000000
0.200000 0.700000 0.000000
0.300000 0.700000 0.000000
0.400000 0.700000 0.000000
0.500000 0.700000 0.000000
0.600000 0.700000 0.000000
0.700000 0.700000 0.000000
0.800000 0.700000 0.000000
0.900000 0.700000 0.000000
1.000000 0.700000 0.000000
1.100000 0.700000 0.000000
1.200000 0.700000 0.000000
1.300000 0.700000 0.000000
1.400000 0.700000 0.000000
1.500000 0.700000 0.000000
1.600000 0.700000 0.000000
1.700000 0.700000 0.000000
1.800000 0.700000 0.000000
1.900000 0.700000 0.000000
2.000000 0.700000 0.000000
2.100000 0.700000 0.000000
2.200000 0.700000 0.000000
2.300000 0.700000 0.000000
2.400000 0.700000 0.000000
2.500000 0.700000 0.000000
2.600000 0.700000 0.000000
2.700000 0.700000 0.000000
2.800000 0.700000 0.000000
2.900000 0.700000 0.000000
3.000000 0.700000 0.000000
3.100000 0.700000 0.000000
3.200000 0.700000 0.000000
3.300000 0.700000 0.000000
3.400000 0.700000 0.000000
3.500000 0.700000 0.000000
3.600000 0.700000 0.000000
3.700000 0.700000 0.000000
3.800000 0.700000 0.000000
3.900000 0.700000 0.000000
4.000000 0.700000 0.000000
0.000000 0.800000 0.000000
0.100000 0.800000 0.000000
0.200000 0.800000 0.000000
0.300000 0.800000 0.000000
0.400000 0.800000 0.000000
0.500000 0.800000 0.000000
0.600000 0.800000 0.000000
0.700000 0.800000 0.000000
0.800000 0.800000 0.000000
0.900000 0.800000 0.000000
1.000000 0.800000 0.000000
1.100000 0.800000 0.000000
1.200000 0.800000 0.000000
1.300000 0.800000 0.000000
1.400000 0.800000 0.000000
1.500000 0.800000 0.000000
1.600000 0.800000 0.000000
1.700000 0.800000 0.000000
1.800000 0.800000 0.000000
1.900000 0.800000 0.000000
2.000000 0.800000 0.000000
2.100000 0.800000 0.000000
2.200000 0.800000 0.000000
2.300000 0.800000 0.000000
2.400000 0.800000 0.000000
2.500000 0.800000 0.000000
2.600000 0.800000 0.000000
2.700000 0.800000 0.000000
2.800000 0.800000 0.000000
2.900000 0.800000 0.000000
3.000000 0.800000 0.000000
3.100000 0.800000 0.000000
3.200000 0.800000 0.000000
3.300000 0.800000 0.000000
3.400000 0.800000 0.000000
3.500000 0.800000 0.000000
3.600000 0.800000 0.000000
[...]
CELL_DATA 16000
SCALARS pressure float 1
LOOKUP_TABLE default
34.7577
31.6344
29.2968
27.5526
26.1876
25.0591
24.0802
23.198
22.3791
21.6018
20.8516
20.1184
19.3953
18.6781
17.9642
17.2524
16.5426
15.8348
15.1293
14.4259
13.7241
13.0233
12.323
11.6225
10.9215
10.2199
9.51753
8.81445
8.11076
7.40655
6.70194
5.99701
5.29184
4.58651
3.88105
3.17551
2.4699
1.76426
1.05859
0.352882
37.1088
31.9942
29.1799
27.3712
26.0377
24.9518
24.0076
23.1502
22.3483
21.5824
20.8397
20.1114
19.3915
18.6761
17.9633
17.2521
16.5426
15.835
15.1295
14.4261
13.7244
13.0236
12.3232
11.6227
10.9217
10.22
9.51763
8.81452
8.11081
7.40658
6.70195
5.99701
5.29184
4.5865
3.88105
3.1755
2.4699
1.76426
1.05859
0.352886
40.4673
32.9718
29.3382
27.2814
25.8965
24.8211
23.9026
23.071
22.2907
21.5416
20.8116
20.0925
19.3791
18.6682
17.9581
17.2486
16.5399
15.8329
15.128
14.4251
13.7238
13.0235
12.3234
11.6231
10.9221
10.2205
9.51801
8.81484
8.11106
7.40677
6.7021
5.99712
5.29192
4.58655
3.88108
3.17552
2.46992
1.76427
1.0586
0.352894
43.968
34.2167
29.6975
27.3115
25.8176
24.7179
23.806
22.9904
22.2274
21.4941
20.7771
20.0683
19.3626
18.6569
17.9501
17.2425
16.535
15.8288
15.1248
14.4228
13.7225
13.0229
12.3235
11.6235
10.9227
10.2211
9.5186
8.81535
8.11148
7.4071
6.70234
5.9973
5.29205
4.58664
3.88114
3.17557
2.46994
1.76429
1.05861
0.352902
47.2395
35.5002
30.1501
27.4239
25.7968
24.6515
23.7307
22.9212
22.1694
21.4483
20.7427
20.0435
19.3451
18.6445
17.9408
17.235
16.5285
15.8232
15.1201
14.4195
13.7205
13.0221
12.3234
11.624
10.9235
10.2219
9.51937
8.81602
8.11202
7.40753
6.70267
5.99754
5.29222
4.58677
3.88122
3.17562
2.46998
1.76431
1.05862
0.352909
50.104
36.688
30.6137
27.5748
25.8145
24.6156
23.6774
22.8667
22.121
21.4085
20.712
20.021
19.3291
18.6328
17.9317
17.2271
16.5213
15.8166
15.1147
14.4155
13.7181
13.021
12.3234
11.6245
10.9243
10.2228
9.52026
8.81679
8.11265
7.40802
6.70304
5.99781
5.29242
4.5869
3.88132
3.17569
2.47002
1.76434
1.05864
0.352914
52.467
37.7015
31.0332
27.7296
25.8508
24.6003
23.642
22.8265
22.0832
21.3765
20.6868
20.0024
19.3157
18.6229
17.9236
17.2198
16.5142
15.81
15.1091
14.4115
13.7157
13.02
12.3234
11.6252
10.9253
10.2238
9.52118
8.81758
8.1133
7.40853
6.70342
5.99809
5.29261
4.58704
3.88142
3.17575
2.47006
1.76437
1.05865
0.352918
54.2743
38.4933
31.3727
27.8638
25.8904
24.5967
23.62
22.7986
22.0557
21.3526
20.6677
19.9882
19.3056
18.6153
17.9172
17.2136
16.5081
15.8041
15.1041
14.4079
13.7136
13.0192
12.3235
11.6258
10.9261
10.2247
9.52202
8.8183
8.11387
7.40898
6.70376
5.99834
5.29279
4.58717
3.8815
3.17581
2.4701
1.76439
1.05867
0.352921
55.494
39.0347
31.6098
27.9613
25.9223
24.5978
23.6074
22.7811
22.0379
21.3367
20.655
19.9787
19.2987
18.6101
17.9126
17.2092
16.5036
15.7998
15.1005
14.4053
13.7121
13.0187
12.3236
11.6263
10.9268
10.2254
9.52266
8.81884
8.11431
7.40932
6.70402
5.99853
5.29293
4.58726
3.88157
3.17585
2.47013
1.7644
1.05867
0.352922
56.108
39.3091
31.7314
28.0123
25.9399
24.5995
23.6018
22.7727
22.0291
21.3289
20.6486
19.9739
19.2953
18.6074
17.9103
17.2069
16.5013
15.7976
15.0986
14.4039
13.7113
13.0184
12.3237
11.6266
10.9272
10.2258
9.52301
8.81914
8.11455
7.4095
6.70415
5.99863
5.293
4.58731
3.8816
3.17587
2.47014
1.76441
1.05868
0.352923
56.108
39.3091
31.7314
28.0123
25.9399
24.5995
23.6018
22.7727
22.0291
21.3289
20.6486
19.9739
19.2953
18.6074
17.9103
17.2069
16.5013
15.7976
15.0986
14.4039
13.7113
13.0184
12.3237
11.6266
10.9272
10.2258
9.52301
8.81914
8.11455
7.4095
6.70415
5.99863
5.293
4.58731
3.8816
3.17587
2.47014
1.76441
1.05868
0.352923
55.494
39.0346
31.6098
27.9613
25.9223
24.5978
23.6074
22.7811
22.0379
21.3367
20.6549
19.9787
19.2987
18.61
17.9126
17.2092
16.5036
15.7998
15.1005
14.4053
13.7121
13.0187
12.3236
11.6263
10.9268
10.2254
9.52266
8.81884
8.11432
7.40932
6.70402
5.99853
5.29293
4.58726
3.88157
3.17585
2.47013
1.7644
1.05867
0.352922
54.2743
38.4933
31.3727
27.8638
25.8903
24.5966
23.6199
22.7985
22.0557
21.3525
20.6677
19.9882
19.3055
18.6152
17.9171
17.2136
16.508
15.8041
15.1041
14.4079
13.7136
13.0192
12.3235
11.6258
10.9261
10.2247
9.52202
8.8183
8.11388
7.40898
6.70376
5.99834
5.2928
4.58717
3.8815
3.17581
2.4701
1.76439
1.05867
0.352921
52.467
37.7015
31.0331
27.7295
25.8508
24.6003
23.642
22.8264
22.0831
21.3764
20.6867
20.0023
19.3157
18.6229
17.9236
17.2197
16.5142
15.8099
15.1091
14.4114
13.7157
13.02
12.3234
11.6252
10.9253
10.2238
9.52118
8.81759
8.1133
7.40853
6.70342
5.99809
5.29262
4.58705
3.88142
3.17575
2.47006
1.76437
1.05865
0.352918
50.104
36.688
30.6137
27.5747
25.8144
24.6156
23.6773
22.8667
22.1209
21.4084
20.7119
20.0209
19.329
18.6328
17.9316
17.227
16.5212
15.8166
15.1146
14.4155
13.7181
13.021
12.3234
11.6245
10.9243
10.2229
9.52027
8.8168
8.11266
7.40803
6.70305
5.99782
5.29242
4.58691
3.88132
3.17569
2.47002
1.76434
1.05864
0.352914
47.2395
35.5001
30.15
27.4238
25.7967
24.6515
23.7306
22.9211
22.1694
21.4482
20.7426
20.0434
19.345
18.6444
17.9407
17.2349
16.5284
15.8231
15.1201
14.4195
13.7204
13.0221
12.3234
11.624
10.9235
10.2219
9.51938
8.81603
8.11203
7.40754
6.70267
5.99754
5.29222
4.58677
3.88122
3.17562
2.46998
1.76431
1.05862
0.352909
43.9679
34.2166
29.6974
27.3114
25.8175
24.7178
23.8059
22.9903
22.2273
21.494
20.777
20.0682
19.3625
18.6568
17.95
17.2424
16.5349
15.8288
15.1247
14.4228
13.7225
13.0229
12.3235
11.6235
10.9227
10.2211
9.51861
8.81536
8.11148
7.40711
6.70235
5.9973
5.29205
4.58665
3.88114
3.17557
2.46994
1.76429
1.05861
0.352902
40.4672
32.9716
29.3381
27.2812
25.8964
24.821
23.9025
23.0709
22.2906
21.5415
20.8115
20.0924
19.3791
18.6681
17.958
17.2485
16.5399
15.8329
15.1279
14.4251
13.7238
13.0235
12.3234
11.6231
10.9221
10.2205
9.51801
8.81485
8.11106
7.40678
6.7021
5.99712
5.29192
4.58656
3.88108
3.17552
2.46992
1.76427
1.0586
0.352894
37.1085
31.994
29.1797
27.3711
26.0376
24.9517
24.0075
23.1501
22.3482
21.5823
20.8396
20.1113
19.3914
18.6761
17.9632
17.2521
16.5425
15.8349
15.1295
14.4261
13.7243
13.0236
12.3232
11.6227
10.9217
10.2201
9.51764
8.81453
8.11081
7.40659
6.70196
5.99702
5.29185
4.58651
3.88105
3.1755
2.4699
1.76426
1.05859
0.352886
34.7573
31.6342
29.2966
27.5524
26.1875
25.059
24.0801
23.1979
22.379
21.6017
20.8515
20.1183
19.3952
18.678
17.9641
17.2523
16.5425
15.8348
15.1293
14.4258
13.7241
13.0233
12.323
11.6225
10.9216
10.2199
9.51753
8.81446
8.11076
7.40656
6.70194
5.99701
5.29184
4.58651
3.88105
3.17551
2.4699
1.76426
1.05859
0.352882
32.3902
30.9554
29.2152
27.6371
26.2941
25.1482
24.1461
23.2442
22.4106
21.6228
20.8653
20.1272
19.4009
18.6815
17.9661
17.2534
16.543
15.8349
15.1292
14.4257
13.724
13.0233
12.3229
11.6225
10.9215
10.2199
9.51753
8.81445
8.11075
7.40654
6.70193
5.997
5.29183
4.5865
3.88104
3.1755
2.4699
1.76426
1.05859
0.352886
33.0915
31.1484
29.1911
27.5621
26.2259
25.0991
24.1145
23.2252
22.4
21.6174
20.8629
20.1265
19.4011
18.6822
17.9672
17.2547
16.5444
15.8363
15.1305
14.4269
13.7248
13.0239
12.3233
11.6226
10.9215
10.2198
9.51738
8.81429
8.11059
7.4064
6.7018
5.99689
5.29175
4.58643
3.88099
3.17546
2.46987
1.76424
1.05857
0.352881
34.4913
31.8227
29.4226
27.5958
26.1879
25.0441
24.0628
23.1831
22.3678
21.5939
20.8464
20.1152
19.3936
18.6773
17.964
17.2526
16.543
15.8354
15.13
14.4266
13.7248
13.024
12.3235
11.6229
10.9218
10.22
9.51755
8.81441
8.11068
7.40645
6.70183
5.99691
5.29176
4.58643
3.88099
3.17546
2.46987
1.76423
1.05857
0.352883
36.1413
32.7311
29.8194
27.7271
26.1995
25.0091
24.0151
23.1371
22.3287
21.5629
20.823
20.0983
19.3817
18.669
17.9581
17.2482
16.5395
15.8326
15.1279
14.4252
13.724
13.0238
12.3237
11.6233
10.9222
10.2205
9.51797
8.81476
8.11096
7.40666
6.70199
5.99702
5.29183
4.58648
3.88102
3.17548
2.46988
1.76424
1.05857
0.352887
37.7826
33.6995
30.2909
27.9198
26.253
24.9995
23.981
23.097
22.2913
21.5314
20.7983
20.0798
19.3683
18.6593
17.9507
17.2423
16.5345
15.8283
15.1244
14.4228
13.7226
13.0232
12.3237
11.6237
10.9228
10.2211
9.51857
8.81528
8.11138
7.40699
6.70224
5.9972
5.29196
4.58657
3.88108
3.17551
2.4699
1.76425
1.05858
0.352889
39.2716
34.6152
30.7656
28.1354
26.3312
25.0099
23.9612
23.0664
22.2596
21.5032
20.7753
20.0623
19.3554
18.6497
17.9431
17.2358
16.5287
15.8232
15.1203
14.4198
13.7209
13.0225
12.3237
11.6242
10.9235
10.2219
9.51928
8.8159
8.11188
7.40739
6.70254
5.99742
5.29212
4.58668
3.88115
3.17556
2.46993
1.76427
1.05859
0.352891
40.5267
35.4076
31.1928
28.3417
26.4159
25.0315
23.9524
23.045
22.235
21.4802
20.7561
20.0474
19.3443
18.6412
17.9362
17.2296
16.523
15.818
15.116
14.4168
13.7192
13.0218
12.3238
11.6247
10.9243
10.2227
9.52003
8.81654
8.11241
7.4078
6.70285
5.99765
5.29228
4.5868
3.88123
3.17562
2.46997
1.76429
1.0586
0.352891
41.4996
36.0322
31.5381
28.5148
26.492
25.0557
23.9503
23.0312
22.2173
21.463
20.7414
20.0359
19.3357
18.6344
17.9305
17.2244
16.518
15.8134
15.1122
14.4141
13.7177
13.0213
12.3239
11.6252
10.925
10.2234
9.52072
8.81713
8.11289
7.40818
6.70314
5.99786
5.29244
4.5869
3.88131
3.17567
2.47
1.76431
1.05861
0.352891
42.1615
36.4616
31.7792
28.6386
26.5486
25.0756
23.9512
23.0231
22.206
21.4516
20.7315
20.028
19.3297
18.6297
17.9264
17.2206
16.5144
15.81
15.1094
14.4122
13.7166
13.0209
12.3241
11.6256
10.9256
10.224
9.52125
8.81758
8.11326
7.40847
6.70335
5.99802
5.29255
4.58699
3.88136
3.1757
2.47002
1.76432
1.05861
0.35289
42.4961
36.6799
31.9028
28.7029
26.5786
25.0867
23.9524
23.0195
22.2005
21.4459
20.7265
20.024
19.3267
18.6273
17.9243
17.2187
16.5124
15.8082
15.1079
14.4112
13.716
13.0207
12.3242
11.6259
10.9259
10.2243
9.52153
8.81783
8.11346
7.40862
6.70347
5.99811
5.29261
4.58703
3.88139
3.17572
2.47003
1.76433
1.05862
0.352889
42.4961
36.6799
31.9028
28.7028
26.5786
25.0866
23.9523
23.0195
22.2005
21.4459
20.7265
20.024
19.3267
18.6273
17.9243
17.2186
16.5124
15.8082
15.1079
14.4112
13.716
13.0207
12.3242
11.6259
10.9259
10.2243
9.52153
8.81783
8.11346
7.40862
6.70347
5.99811
5.29261
4.58703
3.88139
3.17572
2.47003
1.76433
1.05862
0.352889
42.1615
36.4616
31.7792
28.6386
26.5486
25.0755
23.9512
23.0231
22.206
21.4515
20.7314
20.028
19.3297
18.6297
17.9264
17.2206
16.5143
15.81
15.1094
14.4122
13.7166
13.0209
12.3241
11.6256
10.9256
10.224
9.52125
8.81759
8.11326
7.40847
6.70335
5.99802
5.29255
4.58699
3.88136
3.1757
2.47002
1.76432
1.05861
0.35289
41.4996
36.0322
31.5381
28.5148
26.492
25.0556
23.9503
23.0311
22.2173
21.4629
20.7413
20.0358
19.3356
18.6344
17.9304
17.2244
16.518
15.8133
15.1122
14.4141
13.7176
13.0213
12.3239
11.6252
10.925
10.2234
9.52072
8.81714
8.1129
7.40818
6.70314
5.99787
5.29244
4.58691
3.88131
3.17567
2.47
1.76431
1.05861
0.35289
40.5267
35.4076
31.1928
28.3416
26.4158
25.0315
23.9523
23.0449
22.2349
21.4802
20.7561
20.0473
19.3443
18.6411
17.9361
17.2296
16.5229
15.818
15.116
14.4168
13.7191
13.0218
12.3238
11.6247
10.9243
10.2227
9.52004
8.81655
8.11242
7.40781
6.70285
5.99766
5.29229
4.5868
3.88124
3.17562
2.46997
1.76429
1.0586
0.352891
39.2716
34.6152
30.7656
28.1353
26.3311
25.0099
23.9611
23.0663
22.2595
21.5032
20.7753
20.0622
19.3553
18.6496
17.943
17.2357
16.5287
15.8232
15.1203
14.4198
13.7209
13.0225
12.3237
11.6242
10.9235
10.2219
9.51929
8.8159
8.11189
7.40739
6.70254
5.99742
5.29212
4.58668
3.88116
3.17557
2.46993
1.76427
1.05859
0.352891
37.7826
33.6995
30.2908
27.9198
26.253
24.9994
23.9809
23.097
22.2912
21.5313
20.7982
20.0797
19.3682
18.6592
17.9506
17.2422
16.5344
15.8283
15.1244
14.4227
13.7226
13.0232
12.3237
11.6237
10.9228
10.2211
9.51857
8.81528
8.11138
7.407
6.70224
5.9972
5.29196
4.58657
3.88108
3.17552
2.4699
1.76425
1.05858
0.352889
36.1413
32.7311
29.8193
27.727
26.1994
25.009
24.0151
23.137
22.3286
21.5629
20.823
20.0982
19.3816
18.669
17.958
17.2481
16.5394
15.8325
15.1278
14.4251
13.724
13.0238
12.3237
11.6233
10.9222
10.2205
9.51797
8.81476
8.11096
7.40667
6.70199
5.99702
5.29183
4.58648
3.88102
3.17548
2.46988
1.76424
1.05857
0.352887
34.4911
31.8225
29.4224
27.5956
26.1878
25.044
24.0627
23.183
22.3677
21.5938
20.8463
20.1151
19.3935
18.6773
17.9639
17.2526
16.543
15.8354
15.13
14.4266
13.7248
13.024
12.3235
11.6229
10.9218
10.22
9.51756
8.81442
8.11068
7.40646
6.70184
5.99691
5.29176
4.58643
3.88099
3.17546
2.46987
1.76423
1.05857
0.352883
33.0912
31.1482
29.1908
27.5619
26.2257
25.099
24.1144
23.2252
22.3999
21.6173
20.8628
20.1264
19.401
18.6821
17.9671
17.2546
16.5443
15.8363
15.1305
14.4268
13.7248
13.0239
12.3233
11.6226
10.9215
10.2198
9.51739
8.81429
8.1106
7.4064
6.70181
5.9969
5.29175
4.58643
3.88099
3.17546
2.46987
1.76424
1.05857
0.352881
32.3897
30.955
29.2149
27.6369
26.294
25.1481
24.1461
23.2442
22.4105
21.6228
20.8653
20.1271
19.4008
18.6814
17.966
17.2533
16.5429
15.8348
15.1291
14.4257
13.7239
13.0232
12.3229
11.6225
10.9215
10.2199
9.51753
8.81445
8.11076
7.40655
6.70193
5.997
5.29183
4.5865
3.88104
3.1755
2.4699
1.76426
1.05859
0.352885
30.4669
29.8035
28.6615
27.4142
26.228
25.1481
24.1695
23.2725
22.4365
21.6443
20.8823
20.1402
19.4106
18.6885
17.9708
17.2562
16.5443
15.8352
15.129
14.4254
13.7237
13.0232
12.3231
11.6227
10.9218
10.2202
9.5178
8.81468
8.11094
7.40669
6.70203
5.99707
5.29189
4.58653
3.88106
3.17551
2.46991
1.76427
1.05859
0.352893
30.5987
29.8321
28.6164
27.3517
26.175
25.1112
24.1469
23.2603
22.4311
21.6428
20.8827
20.1414
19.4121
18.6902
17.9727
17.2584
16.5467
15.8377
15.1314
14.4274
13.7252
13.0242
12.3236
11.6229
10.9217
10.22
9.51749
8.81435
8.11063
7.40641
6.7018
5.99689
5.29174
4.58642
3.88098
3.17545
2.46986
1.76423
1.05857
0.352883
31.1166
30.1705
28.7718
27.3972
26.1692
25.087
24.1198
23.2364
22.412
21.6285
20.8725
20.1344
19.4075
18.6872
17.9709
17.2574
16.5464
15.8377
15.1316
14.4278
13.7258
13.0247
12.324
11.6232
10.9219
10.2201
9.51752
8.81434
8.11059
7.40636
6.70175
5.99683
5.29169
4.58638
3.88094
3.17542
2.46984
1.76421
1.05856
0.352882
31.8491
30.6898
29.0583
27.5251
26.2085
25.0833
24.0987
23.2108
22.3879
21.6082
20.8566
20.1226
19.3991
18.6813
17.9667
17.2542
16.5438
15.8357
15.1302
14.427
13.7254
13.0248
12.3243
11.6236
10.9224
10.2205
9.51784
8.81459
8.11077
7.40648
6.70183
5.99688
5.29172
4.58639
3.88095
3.17542
2.46983
1.76421
1.05855
0.352882
32.6472
31.2806
29.41
27.703
26.2814
25.0997
24.0879
23.1894
22.3644
21.5868
20.839
20.1092
19.3893
18.674
17.961
17.2494
16.5396
15.832
15.1274
14.4252
13.7246
13.0246
12.3246
11.6242
10.923
10.2211
9.51837
8.81502
8.11111
7.40674
6.70201
5.99701
5.29181
4.58645
3.88098
3.17544
2.46985
1.76421
1.05855
0.352881
33.4104
31.862
29.7722
27.899
26.3721
25.1301
24.087
23.1741
22.3444
21.5672
20.8223
20.0963
19.3798
18.6667
17.9549
17.244
16.5345
15.8274
15.1237
14.4228
13.7234
13.0244
12.325
11.6248
10.9238
10.2218
9.51905
8.81558
8.11155
7.40708
6.70226
5.99719
5.29193
4.58654
3.88104
3.17548
2.46987
1.76422
1.05856
0.352879
34.0751
32.3784
30.1034
28.0861
26.4646
25.1665
24.0927
23.1646
22.329
21.551
20.8081
20.0852
19.3717
18.6602
17.9491
17.2386
16.5292
15.8224
15.1198
14.4204
13.7223
13.0243
12.3254
11.6256
10.9246
10.2226
9.51977
8.81618
8.11203
7.40744
6.70254
5.99739
5.29207
4.58663
3.88111
3.17552
2.46989
1.76424
1.05856
0.352876
34.601
32.7923
30.3743
28.2432
26.5457
25.2012
24.1011
23.1596
22.318
21.5386
20.797
20.0766
19.3653
18.6549
17.9443
17.234
16.5246
15.8179
15.1164
14.4183
13.7215
13.0242
12.3259
11.6263
10.9254
10.2234
9.52043
8.81673
8.11247
7.40778
6.70279
5.99757
5.2922
4.58672
3.88117
3.17556
2.46992
1.76425
1.05857
0.352873
34.9633
33.08
30.5649
28.3557
26.6052
25.2279
24.1089
23.1572
22.3111
21.5304
20.7894
20.0705
19.3608
18.651
17.9408
17.2306
16.5213
15.8146
15.1139
14.4169
13.7209
13.0243
12.3263
11.6269
10.926
10.224
9.52095
8.81716
8.11281
7.40804
6.70298
5.99771
5.2923
4.58679
3.88121
3.17559
2.46994
1.76426
1.05857
0.35287
35.1477
33.2271
30.663
28.4142
26.6366
25.2423
24.1134
23.1564
22.3078
21.5264
20.7856
20.0674
19.3584
18.649
17.939
17.2288
16.5195
15.813
15.1126
14.4161
13.7206
13.0243
12.3266
11.6272
10.9264
10.2243
9.52123
8.81739
8.11299
7.40818
6.70309
5.99779
5.29236
4.58683
3.88124
3.17561
2.46995
1.76427
1.05857
0.352868
35.1477
33.2271
30.663
28.4142
26.6366
25.2423
24.1134
23.1564
22.3078
21.5263
20.7855
20.0674
19.3584
18.649
17.939
17.2288
16.5195
15.813
15.1126
14.4161
13.7206
13.0243
12.3266
11.6272
10.9264
10.2243
9.52123
8.81739
8.11299
7.40818
6.70309
5.99779
5.29236
4.58683
3.88124
3.17561
2.46995
1.76427
1.05857
0.352868
34.9633
33.08
30.5649
28.3557
26.6052
25.2279
24.1088
23.1572
22.3111
21.5304
20.7894
20.0705
19.3608
18.651
17.9408
17.2306
16.5212
15.8146
15.1139
14.4169
13.7209
13.0243
12.3263
11.6269
10.9261
10.224
9.52095
8.81716
8.11281
7.40804
6.70298
5.99771
5.2923
4.58679
3.88121
3.17559
2.46994
1.76426
1.05857
0.35287
34.601
32.7924
30.3743
28.2432
26.5456
25.2012
24.1011
23.1595
22.318
21.5386
20.7969
20.0765
19.3653
18.6548
17.9443
17.234
16.5246
15.8178
15.1163
14.4183
13.7215
13.0242
12.3259
11.6263
10.9254
10.2234
9.52044
8.81674
8.11247
7.40778
6.70279
5.99757
5.2922
4.58672
3.88117
3.17556
2.46992
1.76425
1.05857
0.352873
34.0751
32.3784
30.1034
28.086
26.4646
25.1665
24.0926
23.1646
22.3289
21.5509
20.808
20.0852
19.3716
18.6601
17.9491
17.2386
16.5292
15.8223
15.1198
14.4204
13.7223
13.0243
12.3254
11.6256
10.9246
10.2226
9.51977
8.81618
8.11203
7.40745
6.70254
5.99739
5.29207
4.58663
3.88111
3.17552
2.46989
1.76424
1.05856
0.352876
33.4104
31.862
29.7721
27.899
26.372
25.1301
24.0869
23.174
22.3444
21.5671
20.8222
20.0962
19.3797
18.6666
17.9548
17.2439
16.5344
15.8273
15.1237
14.4228
13.7234
13.0244
12.325
11.6248
10.9238
10.2218
9.51905
8.81559
8.11156
7.40708
6.70227
5.9972
5.29193
4.58654
3.88104
3.17548
2.46987
1.76422
1.05856
0.352879
32.6472
31.2806
29.4099
27.703
26.2814
25.0996
24.0879
23.1893
22.3643
21.5867
20.8389
20.1091
19.3892
18.6739
17.9609
17.2494
16.5395
15.832
15.1273
14.4252
13.7246
13.0246
12.3246
11.6242
10.923
10.2211
9.51838
8.81503
8.11111
7.40674
6.70202
5.99702
5.29181
4.58645
3.88099
3.17544
2.46985
1.76421
1.05855
0.352881
31.849
30.6897
29.0582
27.525
26.2084
25.0832
24.0986
23.2107
22.3878
21.6081
20.8565
20.1226
19.399
18.6812
17.9666
17.2541
16.5437
15.8356
15.1301
14.427
13.7254
13.0248
12.3243
11.6236
10.9224
10.2205
9.51785
8.81459
8.11077
7.40649
6.70183
5.99689
5.29172
4.58639
3.88095
3.17542
2.46983
1.76421
1.05855
0.352882
31.1164
30.1703
28.7716
27.397
26.1691
25.0869
24.1197
23.2363
22.412
21.6284
20.8724
20.1343
19.4074
18.6871
17.9709
17.2574
16.5463
15.8377
15.1316
14.4278
13.7257
13.0247
12.324
11.6232
10.9219
10.2201
9.51753
8.81435
8.11059
7.40636
6.70175
5.99683
5.29169
4.58638
3.88094
3.17542
2.46984
1.76421
1.05856
0.352882
30.5984
29.8318
28.6162
27.3515
26.1748
25.1111
24.1468
23.2602
22.431
21.6427
20.8826
20.1413
19.4121
18.6901
17.9726
17.2583
16.5466
15.8377
15.1313
14.4274
13.7252
13.0242
12.3236
11.6229
10.9217
10.22
9.51749
8.81436
8.11063
7.40642
6.70181
5.99689
5.29174
4.58642
3.88098
3.17545
2.46986
1.76423
1.05857
0.352882
30.4665
29.8031
28.6612
27.4139
26.2279
25.148
24.1694
23.2724
22.4365
21.6443
20.8822
20.1401
19.4105
18.6884
17.9707
17.2561
16.5442
15.8351
15.129
14.4254
13.7237
13.0232
12.3231
11.6227
10.9218
10.2202
9.51781
8.81469
8.11094
7.40669
6.70204
5.99707
5.29189
4.58653
3.88106
3.17551
2.46991
1.76427
1.05859
0.352893
29.0439
28.6897
27.9428
27.0023
26.0127
25.0464
24.129
23.263
22.4416
21.6554
20.895
20.1525
19.4213
18.6971
17.977
17.26
16.5461
15.8356
15.1287
14.425
13.7235
13.0233
12.3235
11.6233
10.9225
10.2208
9.51837
8.81515
8.11131
7.40697
6.70224
5.99722
5.29199
4.58661
3.88111
3.17555
2.46993
1.76428
1.0586
0.3529
29.0058
28.6536
27.8861
26.943
25.9637
25.0116
24.107
23.2508
22.4358
21.6533
20.8948
20.1531
19.4223
18.6984
17.9788
17.2625
16.5492
15.839
15.132
14.4277
13.7256
13.0246
12.3241
11.6235
10.9223
10.2205
9.5179
8.81468
8.11088
7.4066
6.70193
5.99698
5.2918
4.58646
3.881
3.17546
2.46987
1.76423
1.05857
0.352885
29.153
28.7906
27.9628
26.9696
25.9617
24.9973
24.0898
23.2348
22.4228
21.6433
20.8876
20.1481
19.4191
18.6965
17.9779
17.2623
16.5494
15.8396
15.1328
14.4287
13.7266
13.0255
12.3247
11.6239
10.9225
10.2205
9.51785
8.81457
8.11075
7.40646
6.70181
5.99686
5.2917
4.58638
3.88094
3.17541
2.46983
1.7642
1.05855
0.352881
29.4515
29.0514