# vtk DataFile Version 2.0
I need something to put here
ASCII

DATASET STRUCTURED_GRID
DIMENSIONS 41 21 21
POINTS 18081 float
0.000000 0.000000 0.000000
0.100000 0.000000 0.000000
0.200000 0.000000 0.000000
0.300000 0.000000 0.000000
0.400000 0.000000 0.000000
0.500000 0.000000 0.000000
0.600000 0.000000 0.000000
0.700000 0.000000 0.000000
0.800000 0.000000 0.000000
0.900000 0.000000 0.000000
1.000000 0.000000 0.000000
1.100000 0.000000 0.000000
1.200000 0.000000 0.000000
1.300000 0.000000 0.000000
1.400000 0.000000 0.000000
1.500000 0.000000 0.000000
1.600000 0.000000 0.000000
1.700000 0.000000 0.000000
1.800000 0.000000 0.000000
1.900000 0.000000 0.000000
2.000000 0.000000 0.000000
2.100000 0.000000 0.000000
2.200000 0.000000 0.000000
2.300000 0.000000 0.000000
2.400000 0.000000 0.000000
2.500000 0.000000 0.000000
2.600000 0.000000 0.000000
2.700000 0.000000 0.000000
2.800000 0.000000 0.000000
2.900000 0.000000 0.000000
3.000000 0.000000 0.000000
3.100000 0.000000 0.000000
3.200000 0.000000 0.000000
3.300000 0.000000 0.000000
3.400000 0.000000 0.000000
3.500000 0.000000 0.000000
3.600000 0.000000 0.000000
3.700000 0.000000 0.000000
3.800000 0.000000 0.000000
3.900000 0.000000 0.000000
4.000000 0.000000 0.000000
0.000000 0.100000 0.000000
0.100000 0.100000 0.000000
0.200000 0.100000 0.000000
0.300000 0.100000 0.000000
0.400000 0.100000 0.000000
0.500000 0.100000 0.000000
0.600000 0.100000 0.000000
0.700000 0.100000 0.000000
0.800000 0.100000 0.000000
0.900000 0.100000 0.000000
1.000000 0.100000 0.000000
1.100000 0.100000 0.000000
1.200000 0.100000 0.000000
1.300000 0.100000 0.000000
1.400000 0.100000 0.000000
1.500000 0.100000 0.000000
1.600000 0.100000 0.000000
1.700000 0.100000 0.000000
1.800000 0.100000 0.000000
1.900000 0.100000 0.000000
2.000000 0.100000 0.000000
2.100000 0.100000 0.000000
2.200000 0.100000 0.000000
2.300000 0.100000 0.000000
2.400000 0.100000 0.000000
2.500000 0.100000 0.000000
2.600000 0.100000 0.000000
2.700000 0.100000 0.000000
2.800000 0.100000 0.000000
2.900000 0.100000 0.000000
3.000000 0.100000 0.000000
3.100000 0.100000 0.000000
3.200000 0.100000 0.000000
3.300000 0.100000 0.000000
3.400000 0.100000 0.000000
3.500000 0.100000 0.000000
3.600000 0.100000 0.000000
3.700000 0.100000 0.000000
3.800000 0.100000 0.000000
3.900000 0.100000 0.000000
4.000000 0.100000 0.000000
0.000000 0.200000 0.000000
0.100000 0.200000 0.000000
0.200000 0.200000 0.000000
0.300000 0.200000 0.000000
0.400000 0.200000 0.000000
0.500000 0.200000 0.000000
0.600000 0.200000 0.000000
0.700000 0.200000 0.000000
0.800000 0.200000 0.000000
0.900000 0.200000 0.000000
1.000000 0.200000 0.000000
1.100000 0.200000 0.000000
1.200000 0.200000 0.000000
1.300000 0.200000 0.000000
1.400000 0.200000 0.000000
1.500000 0.200000 0.000000
1.600000 0.200000 0.000000
1.700000 0.200000 0.000000
1.800000 0.200000 0.000000
1.900000 0.200000 0.000000
2.000000 0.200000 0.000000
2.100000 0.200000 0.000000
2.200000 0.200000 0.000000
2.300000 0.200000 0.000000
2.400000 0.200000 0.000000
2.500000 0.200000 0.000000
2.600000 0.200000 0.000000
2.700000 0.200000 0.000000
2.800000 0.200000 0.000000
2.900000 0.200000 0.000000
3.000000 0.200000 0.000000
3.100000 0.200000 0.000000
3.200000 0.200000 0.000000
3.300000 0.200000 0.000000
3.400000 0.200000 0.000000
3.500000 0.200000 0.000000
3.600000 0.200000 0.000000
3.700000 0.200000 0.000000
3.800000 0.200000 0.000000
3.900000 0.200000 0.000000
4.000000 0.200000 0.000000
0.000000 0.300000 0.000000
0.100000 0.300000 0.000000
0.200000 0.300000 0.000000
0.300000 0.300000 0.000000
0.400000 0.300000 0.000000
0.500000 0.300000 0.000000
0.600000 0.300000 0.000000
0.700000 0.300000 0.000000
0.800000 0.300000 0.000000
0.900000 0.300000 0.000000
1.000000 0.300000 0.000000
1.100000 0.300000 0.000000
1.200000 0.300000 0.000000
1.300000 0.300000 0.000000
1.400000 0.300000 0.000000
1.500000 0.300000 0.000000
1.600000 0.300000 0.000000
1.700000 0.300000 0.000000
1.800000 0.300000 0.000000
1.900000 0.300000 0.000000
2.000000 0.300000 0.000000
2.100000 0.300000 0.000000
2.200000 0.300000 0.000000
2.300000 0.300000 0.000000
2.400000 0.300000 0.000000
2.500000 0.300000 0.000000
2.600000 0.300000 0.000000
2.700000 0.300000 0.000000
2.800000 0.300000 0.000000
2.900000 0.300000 0.000000
3.000000 0.300000 0.000000
3.100000 0.300000 0.000000
3.200000 0.300000 0.000000
3.300000 0.300000 0.000000
3.400000 0.300000 0.000000
3.500000 0.300000 0.000000
3.600000 0.300000 0.000000
3.700000 0.300000 0.000000
3.800000 0.300000 0.000000
3.900000 0.300000 0.000000
4.000000 0.300000 0.000000
0.000000 0.400000 0.000000
0.100000 0.400000 0.000000
0.200000 0.400000 0.000000
0.300000 0.400000 0.000000
0.400000 0.400000 0.000000
0.500000 0.400000 0.000000
0.600000 0.400000 0.000000
0.700000 0.400000 0.000000
0.800000 0.400000 0.000000
0.900000 0.400000 0.000000
1.000000 0.400000 0.000000
1.100000 0.400000 0.000000
1.200000 0.400000 0.000000
1.300000 0.400000 0.000000
1.400000 0.400000 0.000000
1.500000 0.400000 0.000000
1.600000 0.400000 0.000000
1.700000 0.400000 0.000000
1.800000 0.400000 0.000000
1.900000 0.400000 0.000000
2.000000 0.400000 0.000000
2.100000 0.400000 0.000000
2.200000 0.400000 0.000000
2.300000 0.400000 0.000000
2.400000 0.400000 0.000000
2.500000 0.400000 0.000000
2.600000 0.400000 0.000000
2.700000 0.400000 0.000000
2.800000 0.400000 0.000000
2.900000 0.400000 0.000000
3.000000 0.400000 0.000000
3.100000 0.400000 0.000000
3.200000 0.400000 0.000000
3.300000 0.400000 0.000000
3.400000 0.400000 0.000000
3.500000 0.400000 0.000000
3.600000 0.400000 0.000000
3.700000 0.400000 0.000000
3.800000 0.400000 0.000000
3.900000 0.400000 0.000000
4.000000 0.400000 0.000000
0.000000 0.500000 0.000000
0.100000 0.500000 0.000000
0.200000 0.500000 0.000000
0.300000 0.500000 0.000000
0.400000 0.500000 0.000000
0.500000 0.500000 0.000000
0.600000 0.500000 0.000000
0.700000 0.500000 0.000000
0.800000 0.500000 0.000000
0.900000 0.500000 0.000000
1.000000 0.500000 0.000000
1.100000 0.500000 0.000000
1.200000 0.500000 0.000000
1.300000 0.500000 0.000000
1.400000 0.500000 0.000000
1.500000 0.500000 0.000000
1.600000 0.500000 0.000000
1.700000 0.500000 0.000000
1.800000 0.500000 0.000000
1.900000 0.500000 0.000000
2.000000 0.500000 0.000000
2.100000 0.500000 0.000000
2.200000 0.500000 0.000000
2.300000 0.500000 0.000000
2.400000 0.500000 0.000000
2.500000 0.500000 0.000000
2.600000 0.500000 0.000000
2.700000 0.500000 0.000000
2.800000 0.500000 0.000000
2.900000 0.500000 0.000000
3.000000 0.500000 0.000000
3.100000 0.500000 0.000000
3.200000 0.500000 0.000000
3.300000 0.500000 0.000000
3.400000 0.500000 0.000000
3.500000 0.500000 0.000000
3.600000 0.500000 0.000000
3.700000 0.500000 0.000000
3.800000 0.500000 0.000000
3.900000 0.500000 0.000000
4.000000 0.500000 0.000000
0.000000 0.600000 0.000000
0.100000 0.600000 0.000000
0.200000 0.600000 0.000000
0.300000 0.600000 0.000000
0.400000 0.600000 0.000000
0.500000 0.600000 0.000000
0.600000 0.600000 0.000000
0.700000 0.600000 0.000000
0.800000 0.600000 0.000000
0.900000 0.600000 0.000000
1.000000 0.600000 0.000000
1.100000 0.600000 0.000000
1.200000 0.600000 0.000000
1.300000 0.600000 0.000000
1.400000 0.600000 0.000000
1.500000 0.600000 0.000000
1.600000 0.600000 0.000000
1.700000 0.600000 0.000000
1.800000 0.600000 0.000000
1.900000 0.600000 0.000000
2.000000 0.600000 0.000000
2.100000 0.600000 0.000000
2.200000 0.600000 0.000000
2.300000 0.600000 0.000000
2.400000 0.600000 0.000000
2.500000 0.600000 0.000000
2.600000 0.600000 0.000000
2.700000 0.600000 0.000000
2.800000 0.600000 0.000000
2.900000 0.600000 0.000000
3.000000 0.600000 0.000000
3.100000 0.600000 0.000000
3.200000 0.600000 0.000000
3.300000 0.600000 0.000000
3.400000 0.600000 0.000000
3.500000 0.600000 0.000000
3.600000 0.600000 0.000000
3.700000 0.600000 0.000000
3.800000 0.600000 0.000000
3.900000 0.600000 0.000000
4.000000 0.600000 0.000000
0.000000 0.700000 0.000000
0.100000 0.700000 0.000000
0.200000 0.700000 0.000000
0.300000 0.700000 0.000000
0.400000 0.700000 0.000000
0.500000 0.700000 0.000000
0.600000 0.700000 0.000000
0.700000 0.700000 0.000000
0.800000 0.700000 0.000000
0.900000 0.700000 0.000000
1.000000 0.700000 0.000000
1.100000 0.700000 0.000000
1.200000 0.700000 0.000000
1.300000 0.700000 0.000000
1.400000 0.700000 0.000000
1.500000 0.700000 0.000000
1.600000 0.700000 0.000000
1.700000 0.700000 0.000000
1.800000 0.700000 0.000000
1.900000 0.700000 0.000000
2.000000 0.700000 0.000000
2.100000 0.700000 0.000000
2.200000 0.700000 0.000000
2.300000 0.700000 0.000000
2.400000 0.700000 0.000000
2.500000 0.700000 0.000000
2.600000 0.700000 0.000000
2.700000 0.700000 0.000000
2.800000 0.700000 0.000000
2.900000 0.700000 0.000000
3.000000 0.700000 0.000000
3.100000 0.700000 0.000000
3.200000 0.700000 0.000000
3.300000 0.700000 0.000000
3.400000 0.700000 0.000000
3.500000 0.700000 0.000000
3.600000 0.700000 0.000000
3.700000 0.700000 0.000000
3.800000 0.700000 0.000000
3.900000 0.700000 0.000000
4.000000 0.700000 0.000000
0.000000 0.800000 0.000000
0.100000 0.800000 0.000000
0.200000 0.800000 0.000000
0.300000 0.800000 0.000000
0.400000 0.800000 0.000000
0.500000 0.800000 0.000000
0.600000 0.800000 0.000000
0.700000 0.800000 0.000000
0.800000 0.800000 0.000000
0.900000 0.800000 0.000000
1.000000 0.800000 0.000000
1.100000 0.800000 0.000000
1.200000 0.800000 0.000000
1.300000 0.800000 0.000000
1.400000 0.800000 0.000000
1.500000 0.800000 0.000000
1.600000 0.800000 0.000000
1.700000 0.800000 0.000000
1.800000 0.800000 0.000000
1.900000 0.800000 0.000000
2.000000 0.800000 0.000000
2.100000 0.800000 0.000000
2.200000 0.800000 0.000000
2.300000 0.800000 0.000000
2.400000 0.800000 0.000000
2.500000 0.800000 0.000000
2.600000 0.800000 0.000000
2.700000 0.800000 0.000000
2.800000 0.800000 0.000000
2.900000 0.800000 0.000000
3.000000 0.800000 0.000000
3.100000 0.800000 0.000000
3.200000 0.800000 0.000000
3.300000 0.800000 0.000000
3.400000 0.800000 0.000000
3.500000 0.800000 0.000000
3.600000 0.800000 0.000000
[...]
CELL_DATA 16000
SCALARS pressure float 1
LOOKUP_TABLE default
46.758
43.642
41.3059
39.5475
38.143
36.9386
35.8335
34.7572
33.6557
32.4859
31.2146
29.8222
28.3067
26.6851
24.9916
23.27
21.5671
19.9258
18.3804
16.9527
15.6512
14.4719
13.402
12.4242
11.52
10.672
9.86552
9.08866
8.33234
7.58983
6.85636
6.12861
5.40435
4.68212
3.961
3.24042
2.52008
1.79982
1.07966
0.359694
49.1053
44.0001
41.1879
39.3651
37.9919
36.8302
35.7603
34.7098
33.6267
32.4698
31.2073
29.8202
28.3069
26.6853
24.9905
23.2674
21.5631
19.9209
18.3752
16.9481
15.6477
14.4697
13.4012
12.4244
11.5209
10.6733
9.86694
9.09005
8.33358
7.59089
6.85723
6.1293
5.40489
4.68253
3.96131
3.24065
2.52023
1.79993
1.0797
0.359662
52.4631
44.98
41.3516
39.2837
37.8632
36.7178
35.6814
34.6661
33.6149
32.4841
31.2397
29.8602
28.3433
26.7088
24.9956
23.2526
21.5302
19.8737
18.3195
16.8903
15.5935
14.4228
13.3631
12.3952
11.4995
10.6583
9.85679
9.08345
8.32947
7.58845
6.85588
6.12864
5.40463
4.6825
3.96139
3.24077
2.52035
1.8
1.07971
0.359598
55.9714
46.235
41.7246
39.3328
37.8111
36.6523
35.637
34.6555
33.6407
32.5425
31.3205
29.9476
28.4185
26.7558
25.0057
23.2242
21.4669
19.7832
18.2127
16.7798
15.4898
14.3329
13.2899
12.3387
11.4577
10.6285
9.83628
9.06977
8.32064
7.58295
6.8526
6.12678
5.40367
4.68208
3.96126
3.24079
2.52042
1.80006
1.07972
0.359551
59.2606
47.5374
42.2
39.4749
37.8307
36.6418
35.6382
34.6878
33.7111
32.6492
31.4519
30.0829
28.532
26.8252
25.02
23.1826
21.3751
19.6521
18.0586
16.6209
15.3415
14.2049
13.1862
12.2587
11.3986
10.5864
9.8072
9.05029
8.30796
7.57496
6.84775
6.12397
5.40215
4.68134
3.96097
3.24074
2.52047
1.80012
1.07975
0.359538
62.1515
48.752
42.6941
39.664
37.8993
36.6753
35.6788
34.7573
33.8195
32.7958
31.6243
30.2567
28.6755
26.9115
25.0371
23.1312
21.2628
19.4916
17.8703
16.4275
15.162
14.0508
13.0618
12.1632
11.3282
10.5363
9.77263
9.0271
8.29285
7.5654
6.8419
6.12056
5.40027
4.68039
3.96058
3.24063
2.5205
1.80019
1.0798
0.35956
64.5455
49.7963
43.1478
39.8609
37.9908
36.7344
35.7435
34.8487
33.9481
32.9619
31.8155
30.4473
28.8316
27.0038
25.0548
23.0767
21.1442
19.3219
17.671
16.2234
14.9732
13.8894
12.9321
12.0639
11.2551
10.4843
9.7368
9.00307
8.27717
7.55547
6.83582
6.11698
5.39828
4.67938
3.96014
3.24051
2.52053
1.80027
1.07988
0.359607
66.3832
50.618
43.5202
40.0349
38.0819
36.7996
35.8139
34.9419
34.0736
33.12
31.9952
30.6251
28.9759
27.088
25.0704
23.0274
21.0374
19.1685
17.4904
16.0382
14.802
13.7432
12.8146
11.974
11.1891
10.4374
9.70445
8.98138
8.26302
7.5465
6.83032
6.11374
5.39648
4.67846
3.95973
3.24039
2.52055
1.80034
1.07996
0.359664
67.6269
51.183
43.7831
40.1634
38.1538
36.8539
35.8721
35.0168
34.1722
33.2424
32.133
30.7603
29.0847
27.1508
25.0818
22.9908
20.9584
19.0548
17.3559
15.8997
14.6735
13.6331
12.726
11.9062
11.1393
10.402
9.68003
8.96499
8.25232
7.53972
6.82615
6.11129
5.39511
4.67775
3.95942
3.24029
2.52056
1.8004
1.08002
0.359715
68.2541
51.4704
43.9188
40.2314
38.1931
36.8843
35.9048
35.0584
34.2263
33.3089
32.2072
30.8326
29.1425
27.184
25.0877
22.9715
20.9169
18.9951
17.285
15.8262
14.605
13.5743
12.6786
11.8699
11.1125
10.383
9.6669
8.95618
8.24656
7.53606
6.82391
6.10996
5.39437
4.67737
3.95925
3.24024
2.52057
1.80044
1.08006
0.359744
68.2542
51.4705
43.9189
40.2314
38.1932
36.8844
35.9049
35.0585
34.2264
33.309
32.2073
30.8327
29.1426
27.1841
25.0878
22.9715
20.9168
18.995
17.2849
15.8261
14.6049
13.5742
12.6785
11.8698
11.1125
10.3829
9.66685
8.95614
8.24654
7.53605
6.8239
6.10996
5.39436
4.67737
3.95925
3.24024
2.52057
1.80044
1.08006
0.359745
67.6272
51.1833
43.7833
40.1636
38.1541
36.8542
35.8724
35.0172
34.1727
33.2429
32.1335
30.7608
29.0852
27.1512
25.0821
22.9909
20.9583
19.0546
17.3556
15.8993
14.6731
13.6327
12.7257
11.906
11.1391
10.4018
9.67989
8.96489
8.25224
7.53966
6.82611
6.11126
5.39509
4.67774
3.95941
3.24029
2.52056
1.8004
1.08003
0.359717
66.3837
50.6185
43.5206
40.0353
38.0824
36.8002
35.8145
34.9426
34.0744
33.1209
31.9962
30.6262
28.977
27.0889
25.071
23.0276
21.0372
19.168
17.4897
16.0375
14.8013
13.7425
12.814
11.9736
11.1887
10.4371
9.70422
8.9812
8.26288
7.5464
6.83025
6.11369
5.39645
4.67844
3.95972
3.24038
2.52054
1.80035
1.07996
0.359668
64.5462
49.797
43.1484
39.8615
37.9915
36.7351
35.7445
34.8498
33.9495
32.9635
31.8173
30.4492
28.8334
27.0052
25.0557
23.077
21.1438
19.321
17.6699
16.2222
14.9721
13.8884
12.9312
12.0632
11.2546
10.4839
9.73647
9.00282
8.27698
7.55534
6.83572
6.11692
5.39824
4.67935
3.96012
3.2405
2.52052
1.80027
1.07988
0.359612
62.1523
48.7527
42.6948
39.6648
37.9001
36.6763
35.68
34.7588
33.8213
32.798
31.6267
30.2592
28.6779
26.9133
25.0382
23.1315
21.2622
19.4904
17.8688
16.4259
15.1605
14.0495
13.0607
12.1623
11.3275
10.5357
9.7722
9.02677
8.2926
7.56523
6.84178
6.12047
5.40021
4.68036
3.96055
3.24062
2.5205
1.8002
1.07981
0.359565
59.2615
47.5383
42.2008
39.4758
37.8318
36.643
35.6397
34.6895
33.7133
32.6518
31.4548
30.0859
28.5347
26.8273
25.0213
23.1829
21.3746
19.6508
18.0569
16.619
15.3397
14.2033
13.1848
12.2576
11.3977
10.5857
9.80668
9.04989
8.30767
7.57475
6.84759
6.12387
5.40208
4.68129
3.96095
3.24072
2.52046
1.80012
1.07975
0.359544
55.9724
46.2359
41.7255
39.3338
37.8122
36.6537
35.6386
34.6576
33.6431
32.5453
31.3236
29.9508
28.4214
26.758
25.0071
23.2246
21.4664
19.7819
18.211
16.7778
15.4878
14.3311
13.2884
12.3374
11.4566
10.6277
9.83567
9.06932
8.3203
7.5827
6.85242
6.12666
5.40359
4.68202
3.96123
3.24077
2.52041
1.80006
1.07972
0.359556
52.4641
44.981
41.3526
39.2847
37.8644
36.7193
35.6831
34.6683
33.6175
32.4871
31.2429
29.8635
28.3463
26.7111
24.9971
23.2531
21.5297
19.8725
18.3177
16.8883
15.5914
14.4209
13.3614
12.3938
11.4984
10.6574
9.85611
9.08294
8.32909
7.58818
6.85568
6.1285
5.40454
4.68244
3.96135
3.24074
2.52034
1.8
1.07971
0.359602
49.1062
44.001
41.1889
39.3662
37.9932
36.8318
35.7622
34.7121
33.6294
32.4729
31.2106
29.8235
28.3099
26.6877
24.992
23.2679
21.5627
19.9197
18.3734
16.946
15.6456
14.4678
13.3994
12.423
11.5197
10.6724
9.86622
9.08951
8.33318
7.5906
6.85702
6.12916
5.40479
4.68247
3.96126
3.24062
2.52022
1.79992
1.07971
0.359665
46.7588
43.6428
41.3069
39.5486
38.1443
36.9401
35.8354
34.7595
33.6585
32.489
31.218
29.8256
28.3097
26.6875
24.9931
23.2706
21.5667
19.9246
18.3786
16.9506
15.6491
14.4699
13.4002
12.4227
11.5188
10.671
9.86479
9.08811
8.33193
7.58953
6.85614
6.12846
5.40425
4.68206
3.96096
3.2404
2.52006
1.79982
1.07966
0.359697
44.3872
42.9616
41.2236
39.6313
38.2488
37.0271
35.8995
34.8045
33.6897
32.5109
31.2336
29.8366
28.3168
26.6912
24.9938
23.2692
21.564
19.9213
18.3753
16.9481
15.6476
14.4696
13.4011
12.4243
11.5208
10.6732
9.86689
9.09001
8.33355
7.59087
6.85721
6.12929
5.40488
4.68253
3.9613
3.24064
2.52023
1.79993
1.0797
0.359662
45.0797
43.1474
41.1896
39.542
38.1606
36.9516
35.834
34.744
33.6304
32.4515
31.1754
29.7831
28.2724
26.6603
24.9797
23.2729
21.5847
19.9562
18.4203
16.9983
15.6985
14.5176
13.4438
12.4606
11.5504
10.6967
9.88495
9.10359
8.34356
7.5981
6.86235
6.13288
5.40735
4.6842
3.96242
3.24139
2.52073
1.80026
1.07992
0.35972
46.474
43.8196
41.4196
39.5738
38.1206
36.8948
35.7819
34.7037
33.603
32.4361
31.1693
29.7823
28.2727
26.6582
24.9739
23.2634
21.5726
19.9425
18.4065
16.9861
15.6893
14.5118
13.4411
12.4605
11.5521
10.6993
9.88802
9.10668
8.3464
7.60058
6.86442
6.13455
5.40867
4.68522
3.96319
3.24195
2.52114
1.80053
1.08006
0.359717
48.1285
44.7347
41.8249
39.7161
38.1472
36.8811
35.764
34.698
33.6158
32.4672
31.2135
29.83
28.3122
26.6798
24.973
23.2401
21.5297
19.8846
18.3404
16.9192
15.6277
14.4595
13.3996
12.4294
11.5299
10.6844
9.87842
9.10088
8.34318
7.59901
6.86385
6.13456
5.40896
4.68563
3.96362
3.24234
2.52145
1.80076
1.08019
0.359724
49.7862
45.7197
42.3151
39.932
38.2311
36.9126
35.7853
34.7308
33.6695
32.5429
31.304
29.921
28.3856
26.7205
24.9749
23.204
21.4601
19.7891
18.23
16.8064
15.523
14.3695
13.3269
12.3736
11.489
10.6555
9.85887
9.08811
8.33517
7.59423
6.8612
6.13323
5.40843
4.68555
3.96376
3.24258
2.52169
1.80095
1.08031
0.359761
51.3017
46.6606
42.817
40.1801
38.3511
36.9785
35.8391
34.7954
33.7563
32.6534
31.4298
30.0446
28.4839
26.7743
24.9778
23.1586
21.3723
19.6675
18.089
16.6624
15.3895
14.2545
13.2337
12.3018
11.436
10.6177
9.83286
9.0708
8.32404
7.58735
6.85714
6.131
5.40733
4.68511
3.96369
3.24268
2.52186
1.80112
1.08043
0.359827
52.5888
47.4827
43.2756
40.4234
38.4827
37.0617
35.9112
34.878
33.8606
32.7809
31.5721
30.1829
28.5928
26.8324
24.9805
23.1102
21.279
19.5374
17.9377
16.5079
15.2463
14.1314
13.1339
12.2247
11.3789
10.5769
9.80461
9.05185
8.31174
7.57963
6.8525
6.12835
5.40594
4.68448
3.9635
3.24271
2.52198
1.80126
1.08055
0.359914
53.5932
48.1365
43.6515
40.6322
38.6036
37.1439
35.9848
34.961
33.9625
32.9031
31.7067
30.3126
28.6938
26.8849
24.982
23.0662
21.195
19.4196
17.8002
16.3671
15.1156
14.0188
13.0426
12.1541
11.3264
10.5394
9.77853
9.03429
8.30027
7.57239
6.8481
6.12581
5.40457
4.68383
3.96326
3.24269
2.52207
1.80138
1.08066
0.360003
54.2803
48.589
43.9167
40.784
38.6951
37.2088
36.0442
35.0273
34.0427
32.9979
31.81
30.4109
28.7694
26.9236
24.9828
23.0335
21.1331
19.3328
17.6981
16.2619
15.0173
13.9338
12.9734
12.1005
11.2866
10.5107
9.7586
9.02084
8.29146
7.56681
6.84469
6.12383
5.40349
4.6833
3.96305
3.24266
2.52212
1.80146
1.08074
0.360077
54.6288
48.8201
44.0536
40.8636
38.7442
37.2445
36.0771
35.064
34.0867
33.0494
31.8656
30.4634
28.8094
26.944
24.983
23.0162
21.1006
19.2873
17.6444
16.2061
14.965
13.8884
12.9363
12.0717
11.2651
10.4952
9.74783
9.01356
8.28668
7.56377
6.84283
6.12274
5.4029
4.68301
3.96293
3.24264
2.52215
1.8015
1.08079
0.360118
54.6289
48.8202
44.0537
40.8637
38.7443
37.2446
36.0772
35.0641
34.0868
33.0495
31.8657
30.4635
28.8095
26.9441
24.9831
23.0163
21.1006
19.2873
17.6444
16.2061
14.9649
13.8883
12.9362
12.0716
11.265
10.4952
9.74778
9.01352
8.28665
7.56375
6.84281
6.12273
5.40289
4.683
3.96293
3.24264
2.52215
1.8015
1.08079
0.360118
54.2806
48.5893
43.917
40.7843
38.6953
37.2092
36.0445
35.0277
34.0432
32.9984
31.8105
30.4113
28.7698
26.924
24.983
23.0336
21.1331
19.3327
17.6979
16.2616
15.017
13.9335
12.9731
12.1002
11.2863
10.5105
9.75846
9.02072
8.29137
7.56674
6.84464
6.12379
5.40347
4.68329
3.96304
3.24266
2.52212
1.80146
1.08075
0.360078
53.5937
48.1369
43.6519
40.6327
38.6041
37.1444
35.9855
34.9617
33.9633
32.904
31.7077
30.3135
28.6947
26.8857
24.9825
23.0664
21.1949
19.4193
17.7997
16.3665
15.115
14.0183
13.0421
12.1537
11.3261
10.539
9.77828
9.0341
8.30012
7.57228
6.84802
6.12575
5.40453
4.6838
3.96324
3.24268
2.52206
1.80137
1.08066
0.360006
52.5894
47.4834
43.2763
40.4241
38.4834
37.0625
35.9121
34.8791
33.8619
32.7824
31.5738
30.1846
28.5944
26.8337
24.9813
23.1104
21.2787
19.5367
17.9368
16.5069
15.2453
14.1305
13.1331
12.224
11.3783
10.5765
9.80426
9.05158
8.31153
7.57948
6.85239
6.12827
5.40589
4.68444
3.96347
3.2427
2.52198
1.80126
1.08055
0.359917
51.3026
46.6614
42.8178
40.1809
38.352
36.9795
35.8403
34.7969
33.7581
32.6555
31.4321
30.047
28.4862
26.776
24.9789
23.1589
21.3719
19.6665
18.0877
16.661
15.388
14.2533
13.2326
12.3009
11.4352
10.6172
9.83241
9.07045
8.32378
7.58716
6.857
6.13089
5.40726
4.68506
3.96366
3.24267
2.52185
1.80111
1.08043
0.359831
49.7872
45.7206
42.316
39.9329
38.2322
36.9138
35.7868
34.7325
33.6717
32.5454
31.3068
29.9238
28.3882
26.7225
24.9761
23.2044
21.4597
19.7879
18.2284
16.8047
15.5214
14.368
13.3255
12.3725
11.4881
10.6548
9.85831
9.08769
8.33485
7.594
6.86102
6.13311
5.40835
4.68549
3.96372
3.24255
2.52168
1.80095
1.08031
0.359764
48.1296
44.7357
41.8259
39.7172
38.1483
36.8825
35.7656
34.7
33.6182
32.47
31.2165
29.833
28.315
26.682
24.9743
23.2406
21.5292
19.8835
18.3387
16.9173
15.6258
14.4578
13.3981
12.4281
11.5289
10.6836
9.87779
9.1004
8.34281
7.59874
6.86366
6.13442
5.40887
4.68556
3.96358
3.24232
2.52144
1.80075
1.08019
0.359728
46.475
43.8206
41.4206
39.5749
38.1219
36.8963
35.7837
34.7058
33.6056
32.4391
31.1724
29.7855
28.2756
26.6605
24.9753
23.2639
21.5722
19.9413
18.4048
16.9842
15.6873
14.5099
13.4395
12.4591
11.5509
10.6984
9.88733
9.10615
8.34601
7.60029
6.86421
6.1344
5.40856
4.68514
3.96314
3.24193
2.52112
1.80053
1.08006
0.359721
45.0806
43.1483
41.1905
39.5431
38.1619
36.9532
35.8359
34.7463
33.6331
32.4546
31.1787
29.7864
28.2754
26.6627
24.9812
23.2734
21.5843
19.955
18.4185
16.9962
15.6964
14.5157
13.442
12.4591
11.5492
10.6957
9.88422
9.10304
8.34314
7.5978
6.86213
6.13272
5.40724
4.68413
3.96238
3.24136
2.52071
1.80025
1.07992
0.359724
44.3879
42.9623
41.2245
39.6324
38.25
37.0287
35.9014
34.8068
33.6925
32.5141
31.2371
29.8401
28.32
26.6937
24.9954
23.2697
21.5636
19.92
18.3735
16.9459
15.6454
14.4676
13.3993
12.4228
11.5196
10.6723
9.86616
9.08946
8.33314
7.59057
6.857
6.12914
5.40478
4.68246
3.96126
3.24062
2.52022
1.79992
1.07971
0.359665
42.4652
41.8144
40.678
39.42
38.1986
37.0489
35.9523
34.8717
33.7648
32.5905
31.3134
29.9103
28.3765
26.7303
25.0093
23.2611
21.5353
19.8768
18.3213
16.8914
15.5941
14.4231
13.3632
12.3952
11.4995
10.6582
9.85673
9.08339
8.32942
7.58841
6.85585
6.12861
5.40461
4.68249
3.96138
3.24076
2.52034
1.8
1.07971
0.359597
42.5835
41.8313
40.6162
39.3329
38.1111
36.9655
35.8694
34.7842
33.6695
32.4877
31.2078
29.8102
28.2923
26.6717
24.9829
23.2694
21.5764
19.945
18.4081
16.9872
15.6899
14.5121
13.4413
12.4606
11.5521
10.6994
9.88803
9.10667
8.34639
7.60057
6.86441
6.13454
5.40866
4.68521
3.96318
3.24195
2.52113
1.80053
1.08006
0.359717
43.0904
42.163
40.7639
39.3676
38.0904
36.9221
35.8191
34.7337
33.6217
32.444
31.1689
29.7762
28.263
26.6476
24.9662
23.2622
21.5791
19.9563
18.4266
17.0109
15.7169
14.5402
13.4685
12.4854
11.5738
10.7175
9.90286
9.11844
8.35552
7.60752
6.86961
6.13838
5.41145
4.68721
3.9646
3.24295
2.52183
1.801
1.08033
0.35975
43.8237
42.6854
41.0541
39.4992
38.1344
36.9255
35.8094
34.7258
33.623
32.4569
31.1908
29.8002
28.2797
26.6496
24.9532
23.2374
21.5451
19.9157
18.3838
16.9712
15.684
14.5156
13.4518
12.4754
11.5688
10.716
9.9034
9.12016
8.35776
7.60985
6.87179
6.14029
5.41305
4.68851
3.96563
3.24373
2.52241
1.80139
1.08056
0.359793
44.6368
43.2908
41.4209
39.6947
38.2294
36.9717
35.8394
34.7591
33.67
32.5205
31.2662
29.8744
28.3343
26.6703
24.9397
23.1955
21.4794
19.8304
18.2891
16.8788
15.6023
14.4487
13.4004
12.4379
11.5427
10.6988
9.89269
9.11393
8.3545
7.60846
6.87151
6.14061
5.41365
4.68919
3.96629
3.24431
2.52287
1.80174
1.08077
0.359871
45.4272
43.8965
41.8078
39.9189
38.3554
37.0485
35.9002
34.8247
33.7523
32.6229
31.3826
29.9872
28.4173
26.7018
24.923
23.1409
21.3917
19.713
18.1573
16.7495
15.4873
14.3535
13.3259
12.3823
11.5029
10.6713
9.87447
9.10235
8.3475
7.60451
6.86951
6.1398
5.41352
4.68942
3.96666
3.24472
2.52324
1.80204
1.08098
0.359986
46.1257
44.4426
42.169
40.1399
38.49
37.1395
35.9774
34.9079
33.8532
32.7451
31.5196
30.1199
28.5141
26.7347
24.9023
23.0817
21.2974
19.583
18.01
16.6054
15.3594
14.2475
13.2426
12.3195
11.4574
10.6395
9.85294
9.0883
8.3387
7.59926
6.86658
6.13834
5.41294
4.68934
3.96683
3.24499
2.52353
1.80229
1.08117
0.360121
46.6855
44.8862
42.4695
40.3305
38.6122
37.2269
36.0544
34.9908
33.9522
32.863
31.6504
30.2457
28.6043
26.7608
24.8801
23.0283
21.2145
19.4652
17.8754
16.4731
15.2415
14.1494
13.165
12.2608
11.4146
10.6093
9.83232
9.07469
8.33004
7.59398
6.86354
6.13673
5.4122
4.68911
3.96688
3.24516
2.52374
1.80249
1.08134
0.360255
47.075
45.1976
42.6837
40.4696
38.7042
37.2951
36.1157
35.0567
34.0296
32.9537
31.7491
30.3376
28.6673
26.7775
24.8623
22.9895
21.1561
19.3831
17.7792
16.3763
15.1538
14.0755
13.1062
12.2159
11.3816
10.5859
9.8163
9.06405
8.32322
7.58978
6.86109
6.13539
5.41156
4.68888
3.96687
3.24526
2.52388
1.80263
1.08146
0.360362
47.2745
45.3578
42.7949
40.5428
38.7534
37.3322
36.1493
35.0929
34.0718
33.0024
31.8011
30.3852
28.6991
26.7857
24.8527
22.9692
21.1262
19.3417
17.7303
16.3262
15.1077
14.0363
13.0747
12.1918
11.3638
10.5733
9.80758
9.05824
8.31947
7.58746
6.85972
6.13464
5.41119
4.68873
3.96685
3.24531
2.52395
1.8027
1.08153
0.360422
47.2746
45.3579
42.795
40.5429
38.7535
37.3323
36.1495
35.093
34.0719
33.0024
31.8011
30.3852
28.6991
26.7857
24.8528
22.9693
21.1263
19.3418
17.7303
16.3262
15.1077
14.0363
13.0746
12.1917
11.3638
10.5732
9.80753
9.0582
8.31944
7.58743
6.8597
6.13462
5.41118
4.68873
3.96685
3.24531
2.52395
1.8027
1.08153
0.360422
47.0754
45.1979
42.684
40.4699
38.7045
37.2954
36.116
35.0571
34.03
32.954
31.7492
30.3378
28.6675
26.7777
24.8625
22.9896
21.1562
19.3831
17.7792
16.3762
15.1536
14.0753
13.1059
12.2157
11.3814
10.5857
9.81615
9.06393
8.32312
7.58971
6.86103
6.13535
5.41153
4.68886
3.96686
3.24526
2.52388
1.80263
1.08146
0.360364
46.686
44.8867
42.4699
40.331
38.6127
37.2275
36.055
34.9915
33.9529
32.8637
31.6512
30.2464
28.6051
26.7615
24.8806
23.0285
21.2144
19.465
17.8751
16.4727
15.241
14.1489
13.1645
12.2604
11.4142
10.6089
9.83206
9.07449
8.32989
7.59387
6.86346
6.13666
5.41216
4.68908
3.96686
3.24515
2.52373
1.80249
1.08134
0.360258
46.1264
44.4433
42.1696
40.1406
38.4907
37.1403
35.9783
34.9089
33.8545
32.7466
31.5213
30.1217
28.5159
26.7361
24.9031
23.0819
21.297
19.5821
18.009
16.6043
15.3584
14.2466
13.2418
12.3189
11.4568
10.639
9.85258
9.08802
8.33848
7.5991
6.86646
6.13825
5.41288
4.68929
3.9668
3.24497
2.52352
1.80228
1.08117
0.360125
45.428
43.8973
41.8086
39.9198
38.3563
37.0496
35.9014
34.8262
33.7541
32.6251
31.3851
29.99
28.4198
26.7037
24.9241
23.1412
21.3911
19.7118
18.1557
16.7479
15.4859
14.3523
13.3248
12.3814
11.5022
10.6707
9.874
9.10199
8.34722
7.6043
6.86935
6.13968
5.41344
4.68936
3.96663
3.2447
2.52323
1.80203
1.08098
0.35999
44.6378
43.2917
41.4218
39.6956
38.2305
36.9729
35.8408
34.7609
33.6722
32.5231
31.2693
29.8776
28.3372
26.6725
24.941
23.1959
21.4788
19.829
18.2874
16.877
15.6005
14.4471
13.399
12.4368
11.5419
10.6981
9.89213
9.1135
8.35417
7.60822
6.87133
6.14048
5.41356
4.68913
3.96625
3.24428
2.52286
1.80173
1.08077
0.359875
43.8248
42.6864
41.055
39.5003
38.1355
36.9269
35.811
34.7278
33.6255
32.4598
31.1941
29.8035
28.2826
26.6519
24.9546
23.2378
21.5446
19.9144
18.382
16.9693
15.6821
14.5138
13.4503
12.4741
11.5677
10.7151
9.90276
9.11967
8.35739
7.60957
6.87158
6.14014
5.41294
4.68843
3.96558
3.2437
2.52239
1.80139
1.08055
0.359796
43.0914
42.1639
40.7649
39.3687
38.0917
36.9236
35.8209
34.7359
33.6243
32.4471
31.1722
29.7796
28.2661
26.65
24.9677
23.2627
21.5786
19.9551
18.4248
17.0089
15.7149
14.5383
13.4668
12.484
11.5726
10.7166
9.90215
9.1179
8.35512
7.60722
6.86939
6.13822
5.41134
4.68713
3.96456
3.24292
2.52181
1.80099
1.08033
0.359753
42.5844
41.8321
40.6171
39.334
38.1123
36.967
35.8713
34.7866
33.6723
32.491
31.2113
29.8137
28.2955
26.6742
24.9845
23.2699
21.576
19.9437
18.4062
16.985
15.6877
14.5101
13.4395
12.4591
11.5509
10.6984
9.8873
9.10612
8.34598
7.60026
6.86419
6.13438
5.40855
4.68513
3.96314
3.24192
2.52112
1.80053
1.08006
0.35972
42.466
41.8151
40.6788
39.421
38.1999
37.0504
35.9543
34.8741
33.7678
32.5939
31.3172
29.9141
28.38
26.7331
25.011
23.2617
21.5348
19.8753
18.3192
16.8889
15.5917
14.4209
13.3613
12.3937
11.4982
10.6572
9.85599
9.08284
8.32901
7.58812
6.85564
6.12846
5.40451
4.68242
3.96134
3.24074
2.52033
1.79999
1.07971
0.359602
41.0526
40.7137
39.9769
39.0319
38.0154
36.9905
35.9699
34.9379
33.8642
32.7119
31.4448
30.0364
28.4803
26.7978
25.0336
23.2424
21.4786
19.7906
18.2174
16.7828
15.4917
14.334
13.2906
12.339
11.4579
10.6285
9.83629
9.06974
8.3206
7.58291
6.85256
6.12675
5.40364
4.68206
3.96125
3.24078
2.52041
1.80005
1.07971
0.359549
40.9977
40.6625
39.8983
38.9399
37.9201
36.8926
35.8649
34.8204
33.7312
32.5647
31.2908
29.8886
28.3551
26.7103
24.9942
23.2545
21.5393
19.891
18.3446
16.9219
15.6295
14.4607
13.4003
12.4298
11.5302
10.6845
9.8785
9.10091
8.34318
7.599
6.86384
6.13454
5.40895
4.68562
3.96361
3.24233
2.52145
1.80075
1.08018
0.359722
41.1302
40.7891
39.9624
38.9485
37.893
36.8452
35.8062
34.7554
33.663
32.4964
31.2251
29.8279
28.3009
26.6653
24.9644
23.2452
21.5505
19.9194
18.3863
16.9729
15.6852
14.5163
13.4523
12.4757
11.569
10.7161
9.90347
9.1202
8.35778
7.60985
6.87179
6.14028
5.41304
4.6885
3.96562
3.24373
2.5224
1.80139
1.08055
0.359792
41.4269
41.0504