# vtk DataFile Version 2.0
I need something to put here
ASCII

DATASET STRUCTURED_GRID
DIMENSIONS 41 21 21
POINTS 18081 float
0.000000 0.000000 0.000000
0.100000 0.000000 0.000000
0.200000 0.000000 0.000000
0.300000 0.000000 0.000000
0.400000 0.000000 0.000000
0.500000 0.000000 0.000000
0.600000 0.000000 0.000000
0.700000 0.000000 0.000000
0.800000 0.000000 0.000000
0.900000 0.000000 0.000000
1.000000 0.000000 0.000000
1.100000 0.000000 0.000000
1.200000 0.000000 0.000000
1.300000 0.000000 0.000000
1.400000 0.000000 0.000000
1.500000 0.000000 0.000000
1.600000 0.000000 0.000000
1.700000 0.000000 0.000000
1.800000 0.000000 0.000000
1.900000 0.000000 0.000000
2.000000 0.000000 0.000000
2.100000 0.000000 0.000000
2.200000 0.000000 0.000000
2.300000 0.000000 0.000000
2.400000 0.000000 0.000000
2.500000 0.000000 0.000000
2.600000 0.000000 0.000000
2.700000 0.000000 0.000000
2.800000 0.000000 0.000000
2.900000 0.000000 0.000000
3.000000 0.000000 0.000000
3.100000 0.000000 0.000000
3.200000 0.000000 0.000000
3.300000 0.000000 0.000000
3.400000 0.000000 0.000000
3.500000 0.000000 0.000000
3.600000 0.000000 0.000000
3.700000 0.000000 0.000000
3.800000 0.000000 0.000000
3.900000 0.000000 0.000000
4.000000 0.000000 0.000000
0.000000 0.100000 0.000000
0.100000 0.100000 0.000000
0.200000 0.100000 0.000000
0.300000 0.100000 0.000000
0.400000 0.100000 0.000000
0.500000 0.100000 0.000000
0.600000 0.100000 0.000000
0.700000 0.100000 0.000000
0.800000 0.100000 0.000000
0.900000 0.100000 0.000000
1.000000 0.100000 0.000000
1.100000 0.100000 0.000000
1.200000 0.100000 0.000000
1.300000 0.100000 0.000000
1.400000 0.100000 0.000000
1.500000 0.100000 0.000000
1.600000 0.100000 0.000000
1.700000 0.100000 0.000000
1.800000 0.100000 0.000000
1.900000 0.100000 0.000000
2.000000 0.100000 0.000000
2.100000 0.100000 0.000000
2.200000 0.100000 0.000000
2.300000 0.100000 0.000000
2.400000 0.100000 0.000000
2.500000 0.100000 0.000000
2.600000 0.100000 0.000000
2.700000 0.100000 0.000000
2.800000 0.100000 0.000000
2.900000 0.100000 0.000000
3.000000 0.100000 0.000000
3.100000 0.100000 0.000000
3.200000 0.100000 0.000000
3.300000 0.100000 0.000000
3.400000 0.100000 0.000000
3.500000 0.100000 0.000000
3.600000 0.100000 0.000000
3.700000 0.100000 0.000000
3.800000 0.100000 0.000000
3.900000 0.100000 0.000000
4.000000 0.100000 0.000000
0.000000 0.200000 0.000000
0.100000 0.200000 0.000000
0.200000 0.200000 0.000000
0.300000 0.200000 0.000000
0.400000 0.200000 0.000000
0.500000 0.200000 0.000000
0.600000 0.200000 0.000000
0.700000 0.200000 0.000000
0.800000 0.200000 0.000000
0.900000 0.200000 0.000000
1.000000 0.200000 0.000000
1.100000 0.200000 0.000000
1.200000 0.200000 0.000000
1.300000 0.200000 0.000000
1.400000 0.200000 0.000000
1.500000 0.200000 0.000000
1.600000 0.200000 0.000000
1.700000 0.200000 0.000000
1.800000 0.200000 0.000000
1.900000 0.200000 0.000000
2.000000 0.200000 0.000000
2.100000 0.200000 0.000000
2.200000 0.200000 0.000000
2.300000 0.200000 0.000000
2.400000 0.200000 0.000000
2.500000 0.200000 0.000000
2.600000 0.200000 0.000000
2.700000 0.200000 0.000000
2.800000 0.200000 0.000000
2.900000 0.200000 0.000000
3.000000 0.200000 0.000000
3.100000 0.200000 0.000000
3.200000 0.200000 0.000000
3.300000 0.200000 0.000000
3.400000 0.200000 0.000000
3.500000 0.200000 0.000000
3.600000 0.200000 0.000000
3.700000 0.200000 0.000000
3.800000 0.200000 0.000000
3.900000 0.200000 0.000000
4.000000 0.200000 0.000000
0.000000 0.300000 0.000000
0.100000 0.300000 0.000000
0.200000 0.300000 0.000000
0.300000 0.300000 0.000000
0.400000 0.300000 0.000000
0.500000 0.300000 0.000000
0.600000 0.300000 0.000000
0.700000 0.300000 0.000000
0.800000 0.300000 0.000000
0.900000 0.300000 0.000000
1.000000 0.300000 0.000000
1.100000 0.300000 0.000000
1.200000 0.300000 0.000000
1.300000 0.300000 0.000000
1.400000 0.300000 0.000000
1.500000 0.300000 0.000000
1.600000 0.300000 0.000000
1.700000 0.300000 0.000000
1.800000 0.300000 0.000000
1.900000 0.300000 0.000000
2.000000 0.300000 0.000000
2.100000 0.300000 0.000000
2.200000 0.300000 0.000000
2.300000 0.300000 0.000000
2.400000 0.300000 0.000000
2.500000 0.300000 0.000000
2.600000 0.300000 0.000000
2.700000 0.300000 0.000000
2.800000 0.300000 0.000000
2.900000 0.300000 0.000000
3.000000 0.300000 0.000000
3.100000 0.300000 0.000000
3.200000 0.300000 0.000000
3.300000 0.300000 0.000000
3.400000 0.300000 0.000000
3.500000 0.300000 0.000000
3.600000 0.300000 0.000000
3.700000 0.300000 0.000000
3.800000 0.300000 0.000000
3.900000 0.300000 0.000000
4.000000 0.300000 0.000000
0.000000 0.400000 0.000000
0.100000 0.400000 0.000000
0.200000 0.400000 0.000000
0.300000 0.400000 0.000000
0.400000 0.400000 0.000000
0.500000 0.400000 0.000000
0.600000 0.400000 0.000000
0.700000 0.400000 0.000000
0.800000 0.400000 0.000000
0.900000 0.400000 0.000000
1.000000 0.400000 0.000000
1.100000 0.400000 0.000000
1.200000 0.400000 0.000000
1.300000 0.400000 0.000000
1.400000 0.400000 0.000000
1.500000 0.400000 0.000000
1.600000 0.400000 0.000000
1.700000 0.400000 0.000000
1.800000 0.400000 0.000000
1.900000 0.400000 0.000000
2.000000 0.400000 0.000000
2.100000 0.400000 0.000000
2.200000 0.400000 0.000000
2.300000 0.400000 0.000000
2.400000 0.400000 0.000000
2.500000 0.400000 0.000000
2.600000 0.400000 0.000000
2.700000 0.400000 0.000000
2.800000 0.400000 0.000000
2.900000 0.400000 0.000000
3.000000 0.400000 0.000000
3.100000 0.400000 0.000000
3.200000 0.400000 0.000000
3.300000 0.400000 0.000000
3.400000 0.400000 0.000000
3.500000 0.400000 0.000000
3.600000 0.400000 0.000000
3.700000 0.400000 0.000000
3.800000 0.400000 0.000000
3.900000 0.400000 0.000000
4.000000 0.400000 0.000000
0.000000 0.500000 0.000000
0.100000 0.500000 0.000000
0.200000 0.500000 0.000000
0.300000 0.500000 0.000000
0.400000 0.500000 0.000000
0.500000 0.500000 0.000000
0.600000 0.500000 0.000000
0.700000 0.500000 0.000000
0.800000 0.500000 0.000000
0.900000 0.500000 0.000000
1.000000 0.500000 0.000000
1.100000 0.500000 0.000000
1.200000 0.500000 0.000000
1.300000 0.500000 0.000000
1.400000 0.500000 0.000000
1.500000 0.500000 0.000000
1.600000 0.500000 0.000000
1.700000 0.500000 0.000000
1.800000 0.500000 0.000000
1.900000 0.500000 0.000000
2.000000 0.500000 0.000000
2.100000 0.500000 0.000000
2.200000 0.500000 0.000000
2.300000 0.500000 0.000000
2.400000 0.500000 0.000000
2.500000 0.500000 0.000000
2.600000 0.500000 0.000000
2.700000 0.500000 0.000000
2.800000 0.500000 0.000000
2.900000 0.500000 0.000000
3.000000 0.500000 0.000000
3.100000 0.500000 0.000000
3.200000 0.500000 0.000000
3.300000 0.500000 0.000000
3.400000 0.500000 0.000000
3.500000 0.500000 0.000000
3.600000 0.500000 0.000000
3.700000 0.500000 0.000000
3.800000 0.500000 0.000000
3.900000 0.500000 0.000000
4.000000 0.500000 0.000000
0.000000 0.600000 0.000000
0.100000 0.600000 0.000000
0.200000 0.600000 0.000000
0.300000 0.600000 0.000000
0.400000 0.600000 0.000000
0.500000 0.600000 0.000000
0.600000 0.600000 0.000000
0.700000 0.600000 0.000000
0.800000 0.600000 0.000000
0.900000 0.600000 0.000000
1.000000 0.600000 0.000000
1.100000 0.600000 0.000000
1.200000 0.600000 0.000000
1.300000 0.600000 0.000000
1.400000 0.600000 0.000000
1.500000 0.600000 0.000000
1.600000 0.600000 0.000000
1.700000 0.600000 0.000000
1.800000 0.600000 0.000000
1.900000 0.600000 0.000000
2.000000 0.600000 0.000000
2.100000 0.600000 0.000000
2.200000 0.600000 0.000000
2.300000 0.600000 0.000000
2.400000 0.600000 0.000000
2.500000 0.600000 0.000000
2.600000 0.600000 0.000000
2.700000 0.600000 0.000000
2.800000 0.600000 0.000000
2.900000 0.600000 0.000000
3.000000 0.600000 0.000000
3.100000 0.600000 0.000000
3.200000 0.600000 0.000000
3.300000 0.600000 0.000000
3.400000 0.600000 0.000000
3.500000 0.600000 0.000000
3.600000 0.600000 0.000000
3.700000 0.600000 0.000000
3.800000 0.600000 0.000000
3.900000 0.600000 0.000000
4.000000 0.600000 0.000000
0.000000 0.700000 0.000000
0.100000 0.700000 0.000000
0.200000 0.700000 0.000000
0.300000 0.700000 0.000000
0.400000 0.700000 0.000000
0.500000 0.700000 0.000000
0.600000 0.700000 0.000000
0.700000 0.700000 0.000000
0.800000 0.700000 0.000000
0.900000 0.700000 0.000000
1.000000 0.700000 0.000000
1.100000 0.700000 0.000000
1.200000 0.700000 0.000000
1.300000 0.700000 0.000000
1.400000 0.700000 0.000000
1.500000 0.700000 0.000000
1.600000 0.700000 0.000000
1.700000 0.700000 0.000000
1.800000 0.700000 0.000000
1.900000 0.700000 0.000000
2.000000 0.700000 0.000000
2.100000 0.700000 0.000000
2.200000 0.700000 0.000000
2.300000 0.700000 0.000000
2.400000 0.700000 0.000000
2.500000 0.700000 0.000000
2.600000 0.700000 0.000000
2.700000 0.700000 0.000000
2.800000 0.700000 0.000000
2.900000 0.700000 0.000000
3.000000 0.700000 0.000000
3.100000 0.700000 0.000000
3.200000 0.700000 0.000000
3.300000 0.700000 0.000000
3.400000 0.700000 0.000000
3.500000 0.700000 0.000000
3.600000 0.700000 0.000000
3.700000 0.700000 0.000000
3.800000 0.700000 0.000000
3.900000 0.700000 0.000000
4.000000 0.700000 0.000000
0.000000 0.800000 0.000000
0.100000 0.800000 0.000000
0.200000 0.800000 0.000000
0.300000 0.800000 0.000000
0.400000 0.800000 0.000000
0.500000 0.800000 0.000000
0.600000 0.800000 0.000000
0.700000 0.800000 0.000000
0.800000 0.800000 0.000000
0.900000 0.800000 0.000000
1.000000 0.800000 0.000000
1.100000 0.800000 0.000000
1.200000 0.800000 0.000000
1.300000 0.800000 0.000000
1.400000 0.800000 0.000000
1.500000 0.800000 0.000000
1.600000 0.800000 0.000000
1.700000 0.800000 0.000000
1.800000 0.800000 0.000000
1.900000 0.800000 0.000000
2.000000 0.800000 0.000000
2.100000 0.800000 0.000000
2.200000 0.800000 0.000000
2.300000 0.800000 0.000000
2.400000 0.800000 0.000000
2.500000 0.800000 0.000000
2.600000 0.800000 0.000000
2.700000 0.800000 0.000000
2.800000 0.800000 0.000000
2.900000 0.800000 0.000000
3.000000 0.800000 0.000000
3.100000 0.800000 0.000000
3.200000 0.800000 0.000000
3.300000 0.800000 0.000000
3.400000 0.800000 0.000000
3.500000 0.800000 0.000000
3.600000 0.800000 0.000000
[...]
CELL_DATA 16000
SCALARS pressure float 1
LOOKUP_TABLE default
34.7441
31.6209
29.2832
27.539
26.1741
25.0457
24.0669
23.1849
22.3663
21.5894
20.8397
20.1071
19.3849
18.6686
17.9558
17.2451
16.5364
15.8298
15.1253
14.4228
13.7218
13.0217
12.3218
11.6217
10.921
10.2196
9.51736
8.81438
8.11075
7.40658
6.70198
5.99706
5.2919
4.58656
3.8811
3.17555
2.46994
1.76429
1.0586
0.352888
37.0952
31.9807
29.1663
27.3577
26.0242
24.9384
23.9943
23.1371
22.3354
21.57
20.8278
20.1001
19.381
18.6667
17.9549
17.2449
16.5364
15.8299
15.1255
14.423
13.722
13.0219
12.3221
11.6219
10.9212
10.2197
9.51746
8.81445
8.1108
7.40661
6.702
5.99707
5.2919
4.58656
3.8811
3.17554
2.46994
1.76428
1.0586
0.352892
40.4538
32.9582
29.3246
27.2678
25.8829
24.8077
23.8893
23.0578
22.2778
21.5291
20.7996
20.0812
19.3687
18.6587
17.9497
17.2413
16.5338
15.8279
15.124
14.4221
13.7216
13.0219
12.3223
11.6223
10.9217
10.2202
9.51786
8.81478
8.11106
7.40681
6.70215
5.99718
5.29198
4.58661
3.88113
3.17557
2.46995
1.76429
1.05861
0.3529
43.9544
34.2031
29.6839
27.2979
25.804
24.7044
23.7926
22.9772
22.2145
21.4814
20.765
20.0569
19.352
18.6472
17.9416
17.2352
16.5289
15.8239
15.1209
14.4199
13.7203
13.0214
12.3224
11.6228
10.9223
10.2209
9.51848
8.81532
8.11149
7.40714
6.7024
5.99736
5.29211
4.5867
3.88119
3.17561
2.46998
1.76431
1.05863
0.352908
47.2259
35.4866
30.1365
27.4103
25.7832
24.638
23.7172
22.9078
22.1563
21.4355
20.7304
20.0319
19.3343
18.6348
17.9323
17.2277
16.5225
15.8184
15.1164
14.4167
13.7185
13.0207
12.3225
11.6234
10.9231
10.2217
9.5193
8.81602
8.11206
7.40759
6.70274
5.99761
5.29228
4.58683
3.88128
3.17566
2.47001
1.76434
1.05864
0.352915
50.0904
36.6744
30.6001
27.5611
25.8008
24.602
23.6638
22.8533
22.1077
21.3956
20.6995
20.0091
19.3181
18.623
17.9231
17.2198
16.5153
15.812
15.1112
14.413
13.7163
13.0199
12.3226
11.6241
10.9241
10.2228
9.52025
8.81683
8.11272
7.4081
6.70312
5.99789
5.29249
4.58697
3.88137
3.17573
2.47006
1.76436
1.05866
0.352921
52.4533
37.6879
31.0195
27.7159
25.8371
24.5866
23.6283
22.8129
22.0698
21.3633
20.674
19.9903
19.3046
18.6129
17.9149
17.2124
16.5083
15.8055
15.1058
14.4092
13.7142
13.0191
12.3228
11.6249
10.9251
10.2238
9.52123
8.81766
8.11339
7.40862
6.70351
5.99818
5.29269
4.58711
3.88147
3.1758
2.4701
1.76439
1.05867
0.352924
54.2606
38.4796
31.3589
27.85
25.8766
24.5829
23.6062
22.7848
22.0421
21.3392
20.6548
19.9759
19.2942
18.6051
17.9084
17.2063
16.5023
15.7998
15.101
14.4058
13.7123
13.0185
12.3231
11.6256
10.9261
10.2248
9.52212
8.81841
8.11399
7.40909
6.70386
5.99843
5.29287
4.58724
3.88156
3.17585
2.47014
1.76441
1.05868
0.352927
55.4803
39.0209
31.5961
27.9475
25.9085
24.584
23.5936
22.7673
22.0241
21.3232
20.6418
19.9662
19.2872
18.5998
17.9038
17.2019
16.4979
15.7956
15.0975
14.4034
13.711
13.0181
12.3234
11.6262
10.9269
10.2256
9.5228
8.81899
8.11445
7.40944
6.70413
5.99862
5.29301
4.58733
3.88162
3.1759
2.47016
1.76443
1.05869
0.352928
56.0942
39.2953
31.7177
27.9985
25.926
24.5856
23.5879
22.7588
22.0153
21.3152
20.6354
19.9614
19.2837
18.597
17.9014
17.1996
16.4956
15.7934
15.0957
14.4021
13.7103
13.0179
12.3235
11.6266
10.9273
10.226
9.52317
8.8193
8.1147
7.40963
6.70427
5.99873
5.29308
4.58738
3.88166
3.17592
2.47018
1.76444
1.05869
0.352929
56.0942
39.2953
31.7177
27.9985
25.926
24.5856
23.5879
22.7588
22.0153
21.3152
20.6353
19.9613
19.2836
18.597
17.9014
17.1996
16.4956
15.7934
15.0957
14.4021
13.7103
13.0179
12.3235
11.6266
10.9273
10.226
9.52317
8.8193
8.1147
7.40963
6.70427
5.99873
5.29308
4.58739
3.88166
3.17592
2.47018
1.76444
1.05869
0.352929
55.4803
39.0209
31.5961
27.9475
25.9085
24.584
23.5936
22.7672
22.0241
21.3232
20.6418
19.9662
19.2872
18.5997
17.9037
17.2019
16.4979
15.7956
15.0975
14.4034
13.711
13.0181
12.3234
11.6262
10.9269
10.2256
9.5228
8.81899
8.11446
7.40944
6.70413
5.99863
5.29301
4.58733
3.88162
3.1759
2.47017
1.76443
1.05869
0.352928
54.2606
38.4796
31.3589
27.85
25.8766
24.5828
23.6061
22.7848
22.0421
21.3391
20.6547
19.9759
19.2942
18.6051
17.9083
17.2062
16.5022
15.7997
15.101
14.4058
13.7123
13.0185
12.3231
11.6256
10.9261
10.2248
9.52212
8.81842
8.114
7.40909
6.70387
5.99843
5.29287
4.58724
3.88156
3.17585
2.47014
1.76441
1.05868
0.352927
52.4533
37.6878
31.0194
27.7158
25.837
24.5866
23.6283
22.8128
22.0697
21.3632
20.674
19.9902
19.3045
18.6128
17.9148
17.2124
16.5083
15.8054
15.1058
14.4091
13.7141
13.0191
12.3228
11.6249
10.9251
10.2238
9.52123
8.81767
8.11339
7.40862
6.70352
5.99818
5.29269
4.58711
3.88147
3.1758
2.4701
1.76439
1.05867
0.352924
50.0904
36.6743
30.6
27.5611
25.8007
24.6019
23.6637
22.8532
22.1077
21.3955
20.6994
20.0091
19.318
18.6229
17.923
17.2197
16.5153
15.8119
15.1111
14.413
13.7163
13.0199
12.3226
11.6241
10.9241
10.2228
9.52025
8.81683
8.11272
7.4081
6.70312
5.99789
5.29249
4.58697
3.88137
3.17573
2.47006
1.76437
1.05866
0.352921
47.2259
35.4865
30.1364
27.4102
25.7831
24.6379
23.7172
22.9078
22.1562
21.4354
20.7303
20.0318
19.3342
18.6347
17.9322
17.2276
16.5224
15.8183
15.1164
14.4167
13.7185
13.0207
12.3225
11.6234
10.9231
10.2217
9.51931
8.81602
8.11207
7.40759
6.70274
5.99761
5.29229
4.58683
3.88128
3.17567
2.47001
1.76434
1.05864
0.352915
43.9544
34.2031
29.6838
27.2978
25.8039
24.7043
23.7925
22.9771
22.2144
21.4814
20.7649
20.0568
19.3519
18.6471
17.9415
17.2351
16.5288
15.8238
15.1208
14.4199
13.7203
13.0214
12.3224
11.6228
10.9223
10.2209
9.51849
8.81532
8.11149
7.40715
6.7024
5.99736
5.29211
4.5867
3.88119
3.17561
2.46998
1.76431
1.05863
0.352908
40.4536
32.958
29.3245
27.2677
25.8828
24.8076
23.8892
23.0577
22.2777
21.529
20.7995
20.0811
19.3686
18.6586
17.9496
17.2412
16.5337
15.8279
15.124
14.422
13.7215
13.0218
12.3223
11.6223
10.9217
10.2202
9.51786
8.81478
8.11106
7.40681
6.70215
5.99718
5.29198
4.58661
3.88113
3.17557
2.46995
1.7643
1.05861
0.3529
37.095
31.9804
29.1661
27.3575
26.0241
24.9383
23.9942
23.137
22.3354
21.5699
20.8277
20.1
19.3809
18.6666
17.9548
17.2448
16.5364
15.8299
15.1254
14.423
13.722
13.0219
12.322
11.6219
10.9212
10.2197
9.51747
8.81446
8.1108
7.40661
6.702
5.99707
5.2919
4.58656
3.8811
3.17554
2.46994
1.76428
1.0586
0.352892
34.7437
31.6206
29.283
27.5389
26.174
25.0456
24.0668
23.1848
22.3662
21.5893
20.8396
20.107
19.3848
18.6686
17.9557
17.245
16.5364
15.8297
15.1252
14.4227
13.7217
13.0216
12.3218
11.6217
10.921
10.2196
9.51737
8.81439
8.11075
7.40658
6.70199
5.99707
5.2919
4.58656
3.8811
3.17555
2.46994
1.76429
1.0586
0.352888
32.3766
30.9418
29.2016
27.6235
26.2806
25.1347
24.1328
23.2311
22.3978
21.6104
20.8534
20.116
19.3905
18.672
17.9577
17.2461
16.5368
15.8298
15.1252
14.4226
13.7216
13.0216
12.3218
11.6217
10.921
10.2196
9.51736
8.81438
8.11074
7.40657
6.70197
5.99705
5.29189
4.58655
3.88109
3.17554
2.46993
1.76428
1.0586
0.352892
33.0779
31.1348
29.1775
27.5486
26.2124
25.0857
24.1012
23.2122
22.3872
21.605
20.8511
20.1153
19.3907
18.6728
17.9588
17.2474
16.5382
15.8312
15.1265
14.4237
13.7225
13.0221
12.3221
11.6218
10.921
10.2195
9.51719
8.81419
8.11057
7.40641
6.70184
5.99694
5.2918
4.58649
3.88104
3.1755
2.4699
1.76426
1.05859
0.352887
34.4777
31.8091
29.409
27.5822
26.1744
25.0306
24.0496
23.17
22.355
21.5815
20.8345
20.104
19.3832
18.6679
17.9556
17.2454
16.5369
15.8304
15.126
14.4235
13.7225
13.0223
12.3223
11.6221
10.9212
10.2197
9.51736
8.81431
8.11065
7.40647
6.70187
5.99696
5.29181
4.58648
3.88103
3.1755
2.4699
1.76426
1.05858
0.352889
36.1278
32.7176
29.8058
27.7135
26.1859
24.9956
24.0018
23.1239
22.3159
21.5505
20.8111
20.087
19.3713
18.6595
17.9497
17.2409
16.5334
15.8276
15.1239
14.4221
13.7217
13.0221
12.3225
11.6225
10.9217
10.2202
9.51779
8.81468
8.11093
7.40668
6.70203
5.99707
5.29188
4.58653
3.88107
3.17552
2.46991
1.76426
1.05859
0.352893
37.769
33.6859
30.2773
27.9062
26.2395
24.986
23.9676
23.0838
22.2783
21.5188
20.7862
20.0684
19.3577
18.6497
17.9423
17.235
16.5284
15.8234
15.1206
14.4198
13.7205
13.0216
12.3226
11.623
10.9224
10.2208
9.51842
8.81522
8.11137
7.40702
6.70228
5.99725
5.29201
4.58662
3.88113
3.17555
2.46993
1.76428
1.0586
0.352895
39.258
34.6016
30.752
28.1218
26.3176
24.9964
23.9477
23.0531
22.2465
21.4905
20.7631
20.0507
19.3447
18.64
17.9346
17.2285
16.5227
15.8184
15.1166
14.417
13.7189
13.0211
12.3228
11.6235
10.9232
10.2217
9.51918
8.81587
8.1119
7.40743
6.70259
5.99748
5.29218
4.58674
3.8812
3.1756
2.46996
1.7643
1.05861
0.352896
40.513
35.3939
31.1791
28.328
26.4022
25.0179
23.9388
23.0316
22.2218
21.4674
20.7437
20.0357
19.3335
18.6314
17.9276
17.2223
16.517
15.8133
15.1124
14.4142
13.7173
13.0206
12.323
11.6242
10.924
10.2225
9.51998
8.81655
8.11245
7.40786
6.70292
5.99772
5.29235
4.58685
3.88128
3.17566
2.47
1.76432
1.05861
0.352897
41.4859
36.0185
31.5244
28.5011
26.4783
25.042
23.9367
23.0176
22.204
21.45
20.7288
20.024
19.3246
18.6245
17.9218
17.2171
16.5121
15.8088
15.1088
14.4117
13.716
13.0202
12.3232
11.6248
10.9248
10.2233
9.52071
8.81717
8.11295
7.40825
6.70321
5.99793
5.2925
4.58696
3.88136
3.17571
2.47003
1.76433
1.05862
0.352896
42.1478
36.4479
31.7655
28.6249
26.5349
25.0618
23.9375
23.0095
22.1926
21.4384
20.7188
20.016
19.3186
18.6197
17.9177
17.2133
16.5085
15.8055
15.1061
14.4099
13.715
13.0199
12.3235
11.6253
10.9254
10.224
9.52127
8.81764
8.11334
7.40855
6.70343
5.9981
5.29262
4.58704
3.88141
3.17574
2.47005
1.76435
1.05863
0.352895
42.4824
36.6661
31.8891
28.6891
26.5648
25.0729
23.9386
23.0058
22.187
21.4327
20.7137
20.0119
19.3155
18.6173
17.9156
17.2114
16.5066
15.8037
15.1047
14.4089
13.7145
13.0198
12.3236
11.6256
10.9257
10.2243
9.52157
8.8179
8.11354
7.40871
6.70355
5.99819
5.29268
4.58709
3.88144
3.17576
2.47007
1.76435
1.05863
0.352895
42.4824
36.6662
31.8891
28.6891
26.5648
25.0729
23.9386
23.0058
22.187
21.4327
20.7137
20.0119
19.3155
18.6173
17.9156
17.2114
16.5066
15.8037
15.1047
14.4089
13.7145
13.0198
12.3236
11.6256
10.9257
10.2243
9.52157
8.8179
8.11354
7.40871
6.70355
5.99819
5.29268
4.58709
3.88144
3.17577
2.47007
1.76435
1.05863
0.352895
42.1478
36.4479
31.7655
28.6249
26.5348
25.0618
23.9375
23.0095
22.1925
21.4384
20.7187
20.0159
19.3185
18.6197
17.9177
17.2133
16.5084
15.8054
15.1061
14.4099
13.715
13.0199
12.3235
11.6253
10.9254
10.224
9.52127
8.81765
8.11334
7.40855
6.70343
5.9981
5.29262
4.58705
3.88141
3.17575
2.47005
1.76435
1.05863
0.352895
41.4859
36.0185
31.5244
28.5011
26.4783
25.042
23.9367
23.0176
22.2039
21.4499
20.7288
20.0239
19.3246
18.6245
17.9218
17.2171
16.512
15.8087
15.1087
14.4117
13.716
13.0201
12.3232
11.6248
10.9248
10.2233
9.52071
8.81717
8.11296
7.40825
6.70321
5.99794
5.2925
4.58696
3.88136
3.17571
2.47003
1.76433
1.05862
0.352896
40.513
35.3939
31.1791
28.328
26.4022
25.0179
23.9388
23.0315
22.2217
21.4673
20.7436
20.0356
19.3334
18.6313
17.9275
17.2223
16.5169
15.8132
15.1124
14.4141
13.7173
13.0205
12.323
11.6242
10.924
10.2225
9.51998
8.81655
8.11245
7.40786
6.70292
5.99772
5.29235
4.58686
3.88128
3.17566
2.47
1.76432
1.05861
0.352896
39.258
34.6016
30.7519
28.1217
26.3176
24.9963
23.9477
23.053
22.2465
21.4905
20.763
20.0507
19.3446
18.6399
17.9345
17.2284
16.5226
15.8183
15.1165
14.417
13.7189
13.0211
12.3228
11.6235
10.9232
10.2217
9.51918
8.81587
8.1119
7.40743
6.70259
5.99748
5.29218
4.58674
3.8812
3.17561
2.46997
1.7643
1.05861
0.352896
37.769
33.6859
30.2772
27.9062
26.2394
24.9859
23.9676
23.0838
22.2782
21.5188
20.7861
20.0683
19.3577
18.6496
17.9422
17.2349
16.5283
15.8233
15.1205
14.4198
13.7204
13.0216
12.3226
11.623
10.9224
10.2209
9.51843
8.81522
8.11137
7.40702
6.70228
5.99726
5.29202
4.58662
3.88113
3.17556
2.46993
1.76428
1.0586
0.352895
36.1277
32.7175
29.8057
27.7134
26.1858
24.9955
24.0017
23.1238
22.3158
21.5504
20.811
20.0869
19.3712
18.6595
17.9496
17.2408
16.5333
15.8275
15.1238
14.4221
13.7217
13.0221
12.3225
11.6225
10.9217
10.2202
9.51779
8.81468
8.11094
7.40668
6.70203
5.99707
5.29189
4.58654
3.88107
3.17552
2.46991
1.76426
1.05859
0.352893
34.4776
31.8089
29.4088
27.5821
26.1743
25.0305
24.0495
23.1699
22.3549
21.5814
20.8344
20.1039
19.3831
18.6678
17.9555
17.2453
16.5368
15.8303
15.1259
14.4234
13.7224
13.0223
12.3223
11.6221
10.9212
10.2197
9.51736
8.81432
8.11065
7.40647
6.70187
5.99696
5.29181
4.58648
3.88104
3.1755
2.4699
1.76426
1.05858
0.352889
33.0776
31.1346
29.1773
27.5484
26.2122
25.0856
24.1011
23.2121
22.3871
21.6049
20.851
20.1152
19.3906
18.6727
17.9587
17.2473
16.5382
15.8312
15.1264
14.4237
13.7224
13.0221
12.3221
11.6218
10.921
10.2195
9.51719
8.8142
8.11057
7.40642
6.70184
5.99695
5.29181
4.58649
3.88104
3.1755
2.4699
1.76426
1.05859
0.352886
32.3762
30.9414
29.2013
27.6233
26.2804
25.1346
24.1327
23.231
22.3977
21.6103
20.8533
20.1159
19.3904
18.6719
17.9576
17.246
16.5367
15.8298
15.1251
14.4226
13.7216
13.0215
12.3217
11.6217
10.921
10.2196
9.51736
8.81438
8.11075
7.40657
6.70198
5.99706
5.29189
4.58655
3.88109
3.17554
2.46993
1.76428
1.0586
0.352891
30.4533
29.7899
28.648
27.4006
26.2145
25.1346
24.1561
23.2593
22.4236
21.6318
20.8703
20.1289
19.4001
18.6789
17.9623
17.2489
16.5381
15.8302
15.125
14.4224
13.7215
13.0216
12.3219
11.622
10.9214
10.2199
9.51765
8.81462
8.11094
7.40672
6.70208
5.99713
5.29194
4.58659
3.88111
3.17556
2.46994
1.76429
1.05861
0.352899
30.5852
29.8185
28.6029
27.3381
26.1615
25.0978
24.1336
23.2472
22.4183
21.6304
20.8708
20.1302
19.4018
18.6807
17.9643
17.2511
16.5406
15.8327
15.1273
14.4243
13.7229
13.0225
12.3224
11.622
10.9212
10.2196
9.51729
8.81426
8.1106
7.40643
6.70184
5.99694
5.29179
4.58647
3.88103
3.17549
2.46989
1.76425
1.05858
0.352889
31.103
30.1569
28.7582
27.3836
26.1557
25.0736
24.1065
23.2233
22.3993
21.6161
20.8606
20.1232
19.3971
18.6778
17.9626
17.2502
16.5402
15.8327
15.1276
14.4247
13.7233
13.0229
12.3227
11.6223
10.9214
10.2197
9.51731
8.81423
8.11055
7.40636
6.70178
5.99687
5.29174
4.58643
3.88099
3.17546
2.46987
1.76423
1.05857
0.352888
31.8356
30.6762
29.0447
27.5115
26.195
25.0699
24.0854
23.1977
22.3751
21.5958
20.8447
20.1114
19.3887
18.6718
17.9583
17.2469
16.5376
15.8306
15.1261
14.4239
13.7231
13.023
12.3231
11.6228
10.9218
10.2201
9.51763
8.81448
8.11073
7.40649
6.70185
5.99692
5.29176
4.58644
3.88099
3.17546
2.46986
1.76423
1.05857
0.352888
32.6336
31.267
29.3964
27.6895
26.2679
25.0863
24.0746
23.1762
22.3515
21.5743
20.827
20.0979
19.3788
18.6645
17.9525
17.2421
16.5335
15.8271
15.1234
14.4221
13.7223
13.023
12.3235
11.6234
10.9225
10.2207
9.51818
8.81493
8.11107
7.40675
6.70204
5.99705
5.29185
4.5865
3.88103
3.17548
2.46988
1.76423
1.05857
0.352887
33.3968
31.8484
29.7585
27.8854
26.3585
25.1166
24.0736
23.1609
22.3315
21.5546
20.8102
20.0849
19.3692
18.6571
17.9464
17.2367
16.5284
15.8225
15.1199
14.4199
13.7213
13.0229
12.3239
11.6241
10.9233
10.2215
9.51889
8.81551
8.11153
7.40709
6.7023
5.99724
5.29198
4.58658
3.88108
3.17551
2.4699
1.76425
1.05857
0.352885
34.0614
32.3647
30.0898
28.0724
26.451
25.153
24.0792
23.1513
22.3159
21.5382
20.7958
20.0736
19.3609
18.6505
17.9406
17.2314
16.5232
15.8176
15.1161
14.4177
13.7204
13.0229
12.3245
11.625
10.9242
10.2224
9.51964
8.81613
8.11203
7.40747
6.70258
5.99744
5.29212
4.58668
3.88115
3.17556
2.46992
1.76426
1.05858
0.352881
34.5873
32.7787
30.3606
28.2295
26.532
25.1876
24.0876
23.1462
22.3048
21.5258
20.7845
20.0648
19.3544
18.6451
17.9358
17.2267
16.5187
15.8132
15.1128
14.4158
13.7196
13.023
12.3251
11.6258
10.9251
10.2232
9.52035
8.81671
8.11248
7.40782
6.70284
5.99763
5.29225
4.58677
3.88121
3.1756
2.46995
1.76427
1.05858
0.352878
34.9496
33.0663
30.5512
28.342
26.5915
25.2143
24.0953
23.1438
22.2978
21.5174
20.7768
20.0586
19.3498
18.6412
17.9322
17.2234
16.5153
15.8101
15.1105
14.4144
13.7192
13.0231
12.3256
11.6264
10.9258
10.2238
9.52089
8.81715
8.11283
7.40809
6.70304
5.99777
5.29236
4.58684
3.88126
3.17563
2.46996
1.76428
1.05858
0.352874
35.134
33.2134
30.6493
28.4005
26.6229
25.2287
24.0998
23.1429
22.2945
21.5133
20.7729
20.0555
19.3474
18.6391
17.9304
17.2216
16.5136
15.8084
15.1093
14.4137
13.719
13.0232
12.3259
11.6268
10.9262
10.2242
9.52119
8.8174
8.11302
7.40823
6.70314
5.99785
5.29241
4.58688
3.88128
3.17564
2.46998
1.76429
1.05858
0.352873
35.134
33.2134
30.6493
28.4005
26.6229
25.2287
24.0998
23.1429
22.2944
21.5133
20.7729
20.0554
19.3474
18.6391
17.9304
17.2216
16.5136
15.8084
15.1093
14.4137
13.719
13.0232
12.3259
11.6268
10.9262
10.2242
9.52119
8.8174
8.11302
7.40823
6.70314
5.99785
5.29241
4.58688
3.88128
3.17564
2.46998
1.76429
1.05858
0.352873
34.9496
33.0663
30.5512
28.342
26.5915
25.2143
24.0953
23.1437
22.2978
21.5174
20.7768
20.0586
19.3498
18.6412
17.9322
17.2233
16.5153
15.81
15.1105
14.4144
13.7192
13.0231
12.3256
11.6264
10.9258
10.2238
9.52089
8.81716
8.11283
7.40809
6.70304
5.99777
5.29236
4.58684
3.88126
3.17563
2.46996
1.76428
1.05858
0.352874
34.5873
32.7787
30.3606
28.2295
26.532
25.1876
24.0876
23.1461
22.3048
21.5257
20.7845
20.0647
19.3544
18.645
17.9357
17.2267
16.5186
15.8132
15.1128
14.4157
13.7196
13.023
12.3251
11.6258
10.9251
10.2232
9.52035
8.81671
8.11249
7.40782
6.70284
5.99763
5.29226
4.58677
3.88121
3.1756
2.46995
1.76427
1.05858
0.352877
34.0615
32.3647
30.0898
28.0724
26.451
25.153
24.0792
23.1513
22.3159
21.5381
20.7957
20.0736
19.3609
18.6504
17.9406
17.2313
16.5232
15.8175
15.1161
14.4176
13.7203
13.0229
12.3245
11.625
10.9242
10.2224
9.51965
8.81613
8.11203
7.40747
6.70258
5.99744
5.29212
4.58668
3.88115
3.17556
2.46992
1.76426
1.05858
0.352881
33.3969
31.8484
29.7585
27.8854
26.3585
25.1166
24.0735
23.1608
22.3314
21.5545
20.8101
20.0848
19.3691
18.657
17.9463
17.2366
16.5283
15.8224
15.1199
14.4199
13.7213
13.0229
12.3239
11.6241
10.9233
10.2215
9.51889
8.81551
8.11154
7.4071
6.7023
5.99724
5.29198
4.58658
3.88108
3.17552
2.4699
1.76425
1.05857
0.352885
32.6336
31.267
29.3964
27.6894
26.2678
25.0862
24.0745
23.1761
22.3515
21.5742
20.8269
20.0978
19.3787
18.6644
17.9524
17.2421
16.5334
15.827
15.1234
14.4221
13.7223
13.023
12.3235
11.6234
10.9225
10.2207
9.51819
8.81493
8.11108
7.40675
6.70205
5.99706
5.29185
4.5865
3.88103
3.17548
2.46988
1.76423
1.05857
0.352887
31.8355
30.6761
29.0446
27.5114
26.1949
25.0698
24.0853
23.1976
22.3751
21.5957
20.8446
20.1113
19.3886
18.6718
17.9582
17.2468
16.5375
15.8306
15.1261
14.4238
13.7231
13.023
12.3231
11.6228
10.9218
10.2201
9.51763
8.81448
8.11073
7.40649
6.70186
5.99693
5.29177
4.58644
3.88099
3.17546
2.46986
1.76423
1.05857
0.352888
31.1028
30.1567
28.7581
27.3835
26.1556
25.0735
24.1064
23.2232
22.3992
21.616
20.8605
20.1231
19.397
18.6777
17.9625
17.2501
16.5401
15.8326
15.1275
14.4246
13.7233
13.0229
12.3227
11.6223
10.9214
10.2197
9.51731
8.81423
8.11055
7.40637
6.70178
5.99688
5.29174
4.58643
3.88099
3.17546
2.46987
1.76423
1.05857
0.352888
30.5849
29.8182
28.6026
27.3379
26.1613
25.0976
24.1335
23.2471
22.4182
21.6303
20.8707
20.1301
19.4017
18.6806
17.9642
17.251
16.5405
15.8326
15.1273
14.4242
13.7228
13.0224
12.3223
11.622
10.9212
10.2196
9.51729
8.81426
8.1106
7.40643
6.70184
5.99694
5.29179
4.58647
3.88103
3.17549
2.46989
1.76425
1.05858
0.352888
30.4529
29.7895
28.6476
27.4004
26.2143
25.1345
24.156
23.2592
22.4236
21.6318
20.8703
20.1288
19.4
18.6789
17.9622
17.2488
16.5381
15.8301
15.125
14.4223
13.7214
13.0216
12.3219
11.622
10.9214
10.2199
9.51766
8.81463
8.11094
7.40672
6.70209
5.99713
5.29195
4.58659
3.88111
3.17556
2.46994
1.76429
1.05861
0.352899
29.0304
28.6761
27.9292
26.9887
25.9992
25.0329
24.1156
23.2498
22.4286
21.6427
20.8829
20.141
19.4107
18.6874
17.9685
17.2527
16.54
15.8307
15.1249
14.422
13.7214
13.0218
12.3224
11.6226
10.9221
10.2206
9.51825
8.81512
8.11133
7.40701
6.7023
5.99729
5.29205
4.58666
3.88116
3.17559
2.46996
1.76431
1.05862
0.352906
28.9922
28.64
27.8725
26.9294
25.9502
24.9981
24.0937
23.2376
22.4229
21.6408
20.8829
20.1418
19.4119
18.6889
17.9704
17.2552
16.5431
15.834
15.128
14.4247
13.7233
13.023
12.3229
11.6227
10.9218
10.2201
9.51772
8.8146
8.11086
7.40662
6.70197
5.99703
5.29185
4.58651
3.88105
3.1755
2.4699
1.76426
1.05858
0.352891
29.1395
28.777
27.9492
26.956
25.9482
24.9839
24.0765
23.2218
22.41
21.6309
20.8757
20.1369
19.4087
18.687
17.9695
17.255
16.5433
15.8345
15.1288
14.4256
13.7242
13.0237
12.3235
11.623
10.9219
10.2201
9.51764
8.81446
8.11071
7.40646
6.70183
5.9969
5.29175
4.58643
3.88098
3.17545
2.46986
1.76423