# vtk DataFile Version 2.0
I need something to put here
ASCII

DATASET STRUCTURED_GRID
DIMENSIONS 41 21 21
POINTS 18081 float
0.000000 0.000000 0.000000
0.100000 0.000000 0.000000
0.200000 0.000000 0.000000
0.300000 0.000000 0.000000
0.400000 0.000000 0.000000
0.500000 0.000000 0.000000
0.600000 0.000000 0.000000
0.700000 0.000000 0.000000
0.800000 0.000000 0.000000
0.900000 0.000000 0.000000
1.000000 0.000000 0.000000
1.100000 0.000000 0.000000
1.200000 0.000000 0.000000
1.300000 0.000000 0.000000
1.400000 0.000000 0.000000
1.500000 0.000000 0.000000
1.600000 0.000000 0.000000
1.700000 0.000000 0.000000
1.800000 0.000000 0.000000
1.900000 0.000000 0.000000
2.000000 0.000000 0.000000
2.100000 0.000000 0.000000
2.200000 0.000000 0.000000
2.300000 0.000000 0.000000
2.400000 0.000000 0.000000
2.500000 0.000000 0.000000
2.600000 0.000000 0.000000
2.700000 0.000000 0.000000
2.800000 0.000000 0.000000
2.900000 0.000000 0.000000
3.000000 0.000000 0.000000
3.100000 0.000000 0.000000
3.200000 0.000000 0.000000
3.300000 0.000000 0.000000
3.400000 0.000000 0.000000
3.500000 0.000000 0.000000
3.600000 0.000000 0.000000
3.700000 0.000000 0.000000
3.800000 0.000000 0.000000
3.900000 0.000000 0.000000
4.000000 0.000000 0.000000
0.000000 0.100000 0.000000
0.100000 0.100000 0.000000
0.200000 0.100000 0.000000
0.300000 0.100000 0.000000
0.400000 0.100000 0.000000
0.500000 0.100000 0.000000
0.600000 0.100000 0.000000
0.700000 0.100000 0.000000
0.800000 0.100000 0.000000
0.900000 0.100000 0.000000
1.000000 0.100000 0.000000
1.100000 0.100000 0.000000
1.200000 0.100000 0.000000
1.300000 0.100000 0.000000
1.400000 0.100000 0.000000
1.500000 0.100000 0.000000
1.600000 0.100000 0.000000
1.700000 0.100000 0.000000
1.800000 0.100000 0.000000
1.900000 0.100000 0.000000
2.000000 0.100000 0.000000
2.100000 0.100000 0.000000
2.200000 0.100000 0.000000
2.300000 0.100000 0.000000
2.400000 0.100000 0.000000
2.500000 0.100000 0.000000
2.600000 0.100000 0.000000
2.700000 0.100000 0.000000
2.800000 0.100000 0.000000
2.900000 0.100000 0.000000
3.000000 0.100000 0.000000
3.100000 0.100000 0.000000
3.200000 0.100000 0.000000
3.300000 0.100000 0.000000
3.400000 0.100000 0.000000
3.500000 0.100000 0.000000
3.600000 0.100000 0.000000
3.700000 0.100000 0.000000
3.800000 0.100000 0.000000
3.900000 0.100000 0.000000
4.000000 0.100000 0.000000
0.000000 0.200000 0.000000
0.100000 0.200000 0.000000
0.200000 0.200000 0.000000
0.300000 0.200000 0.000000
0.400000 0.200000 0.000000
0.500000 0.200000 0.000000
0.600000 0.200000 0.000000
0.700000 0.200000 0.000000
0.800000 0.200000 0.000000
0.900000 0.200000 0.000000
1.000000 0.200000 0.000000
1.100000 0.200000 0.000000
1.200000 0.200000 0.000000
1.300000 0.200000 0.000000
1.400000 0.200000 0.000000
1.500000 0.200000 0.000000
1.600000 0.200000 0.000000
1.700000 0.200000 0.000000
1.800000 0.200000 0.000000
1.900000 0.200000 0.000000
2.000000 0.200000 0.000000
2.100000 0.200000 0.000000
2.200000 0.200000 0.000000
2.300000 0.200000 0.000000
2.400000 0.200000 0.000000
2.500000 0.200000 0.000000
2.600000 0.200000 0.000000
2.700000 0.200000 0.000000
2.800000 0.200000 0.000000
2.900000 0.200000 0.000000
3.000000 0.200000 0.000000
3.100000 0.200000 0.000000
3.200000 0.200000 0.000000
3.300000 0.200000 0.000000
3.400000 0.200000 0.000000
3.500000 0.200000 0.000000
3.600000 0.200000 0.000000
3.700000 0.200000 0.000000
3.800000 0.200000 0.000000
3.900000 0.200000 0.000000
4.000000 0.200000 0.000000
0.000000 0.300000 0.000000
0.100000 0.300000 0.000000
0.200000 0.300000 0.000000
0.300000 0.300000 0.000000
0.400000 0.300000 0.000000
0.500000 0.300000 0.000000
0.600000 0.300000 0.000000
0.700000 0.300000 0.000000
0.800000 0.300000 0.000000
0.900000 0.300000 0.000000
1.000000 0.300000 0.000000
1.100000 0.300000 0.000000
1.200000 0.300000 0.000000
1.300000 0.300000 0.000000
1.400000 0.300000 0.000000
1.500000 0.300000 0.000000
1.600000 0.300000 0.000000
1.700000 0.300000 0.000000
1.800000 0.300000 0.000000
1.900000 0.300000 0.000000
2.000000 0.300000 0.000000
2.100000 0.300000 0.000000
2.200000 0.300000 0.000000
2.300000 0.300000 0.000000
2.400000 0.300000 0.000000
2.500000 0.300000 0.000000
2.600000 0.300000 0.000000
2.700000 0.300000 0.000000
2.800000 0.300000 0.000000
2.900000 0.300000 0.000000
3.000000 0.300000 0.000000
3.100000 0.300000 0.000000
3.200000 0.300000 0.000000
3.300000 0.300000 0.000000
3.400000 0.300000 0.000000
3.500000 0.300000 0.000000
3.600000 0.300000 0.000000
3.700000 0.300000 0.000000
3.800000 0.300000 0.000000
3.900000 0.300000 0.000000
4.000000 0.300000 0.000000
0.000000 0.400000 0.000000
0.100000 0.400000 0.000000
0.200000 0.400000 0.000000
0.300000 0.400000 0.000000
0.400000 0.400000 0.000000
0.500000 0.400000 0.000000
0.600000 0.400000 0.000000
0.700000 0.400000 0.000000
0.800000 0.400000 0.000000
0.900000 0.400000 0.000000
1.000000 0.400000 0.000000
1.100000 0.400000 0.000000
1.200000 0.400000 0.000000
1.300000 0.400000 0.000000
1.400000 0.400000 0.000000
1.500000 0.400000 0.000000
1.600000 0.400000 0.000000
1.700000 0.400000 0.000000
1.800000 0.400000 0.000000
1.900000 0.400000 0.000000
2.000000 0.400000 0.000000
2.100000 0.400000 0.000000
2.200000 0.400000 0.000000
2.300000 0.400000 0.000000
2.400000 0.400000 0.000000
2.500000 0.400000 0.000000
2.600000 0.400000 0.000000
2.700000 0.400000 0.000000
2.800000 0.400000 0.000000
2.900000 0.400000 0.000000
3.000000 0.400000 0.000000
3.100000 0.400000 0.000000
3.200000 0.400000 0.000000
3.300000 0.400000 0.000000
3.400000 0.400000 0.000000
3.500000 0.400000 0.000000
3.600000 0.400000 0.000000
3.700000 0.400000 0.000000
3.800000 0.400000 0.000000
3.900000 0.400000 0.000000
4.000000 0.400000 0.000000
0.000000 0.500000 0.000000
0.100000 0.500000 0.000000
0.200000 0.500000 0.000000
0.300000 0.500000 0.000000
0.400000 0.500000 0.000000
0.500000 0.500000 0.000000
0.600000 0.500000 0.000000
0.700000 0.500000 0.000000
0.800000 0.500000 0.000000
0.900000 0.500000 0.000000
1.000000 0.500000 0.000000
1.100000 0.500000 0.000000
1.200000 0.500000 0.000000
1.300000 0.500000 0.000000
1.400000 0.500000 0.000000
1.500000 0.500000 0.000000
1.600000 0.500000 0.000000
1.700000 0.500000 0.000000
1.800000 0.500000 0.000000
1.900000 0.500000 0.000000
2.000000 0.500000 0.000000
2.100000 0.500000 0.000000
2.200000 0.500000 0.000000
2.300000 0.500000 0.000000
2.400000 0.500000 0.000000
2.500000 0.500000 0.000000
2.600000 0.500000 0.000000
2.700000 0.500000 0.000000
2.800000 0.500000 0.000000
2.900000 0.500000 0.000000
3.000000 0.500000 0.000000
3.100000 0.500000 0.000000
3.200000 0.500000 0.000000
3.300000 0.500000 0.000000
3.400000 0.500000 0.000000
3.500000 0.500000 0.000000
3.600000 0.500000 0.000000
3.700000 0.500000 0.000000
3.800000 0.500000 0.000000
3.900000 0.500000 0.000000
4.000000 0.500000 0.000000
0.000000 0.600000 0.000000
0.100000 0.600000 0.000000
0.200000 0.600000 0.000000
0.300000 0.600000 0.000000
0.400000 0.600000 0.000000
0.500000 0.600000 0.000000
0.600000 0.600000 0.000000
0.700000 0.600000 0.000000
0.800000 0.600000 0.000000
0.900000 0.600000 0.000000
1.000000 0.600000 0.000000
1.100000 0.600000 0.000000
1.200000 0.600000 0.000000
1.300000 0.600000 0.000000
1.400000 0.600000 0.000000
1.500000 0.600000 0.000000
1.600000 0.600000 0.000000
1.700000 0.600000 0.000000
1.800000 0.600000 0.000000
1.900000 0.600000 0.000000
2.000000 0.600000 0.000000
2.100000 0.600000 0.000000
2.200000 0.600000 0.000000
2.300000 0.600000 0.000000
2.400000 0.600000 0.000000
2.500000 0.600000 0.000000
2.600000 0.600000 0.000000
2.700000 0.600000 0.000000
2.800000 0.600000 0.000000
2.900000 0.600000 0.000000
3.000000 0.600000 0.000000
3.100000 0.600000 0.000000
3.200000 0.600000 0.000000
3.300000 0.600000 0.000000
3.400000 0.600000 0.000000
3.500000 0.600000 0.000000
3.600000 0.600000 0.000000
3.700000 0.600000 0.000000
3.800000 0.600000 0.000000
3.900000 0.600000 0.000000
4.000000 0.600000 0.000000
0.000000 0.700000 0.000000
0.100000 0.700000 0.000000
0.200000 0.700000 0.000000
0.300000 0.700000 0.000000
0.400000 0.700000 0.000000
0.500000 0.700000 0.000000
0.600000 0.700000 0.000000
0.700000 0.700000 0.000000
0.800000 0.700000 0.000000
0.900000 0.700000 0.000000
1.000000 0.700000 0.000000
1.100000 0.700000 0.000000
1.200000 0.700000 0.000000
1.300000 0.700000 0.000000
1.400000 0.700000 0.000000
1.500000 0.700000 0.000000
1.600000 0.700000 0.000000
1.700000 0.700000 0.000000
1.800000 0.700000 0.000000
1.900000 0.700000 0.000000
2.000000 0.700000 0.000000
2.100000 0.700000 0.000000
2.200000 0.700000 0.000000
2.300000 0.700000 0.000000
2.400000 0.700000 0.000000
2.500000 0.700000 0.000000
2.600000 0.700000 0.000000
2.700000 0.700000 0.000000
2.800000 0.700000 0.000000
2.900000 0.700000 0.000000
3.000000 0.700000 0.000000
3.100000 0.700000 0.000000
3.200000 0.700000 0.000000
3.300000 0.700000 0.000000
3.400000 0.700000 0.000000
3.500000 0.700000 0.000000
3.600000 0.700000 0.000000
3.700000 0.700000 0.000000
3.800000 0.700000 0.000000
3.900000 0.700000 0.000000
4.000000 0.700000 0.000000
0.000000 0.800000 0.000000
0.100000 0.800000 0.000000
0.200000 0.800000 0.000000
0.300000 0.800000 0.000000
0.400000 0.800000 0.000000
0.500000 0.800000 0.000000
0.600000 0.800000 0.000000
0.700000 0.800000 0.000000
0.800000 0.800000 0.000000
0.900000 0.800000 0.000000
1.000000 0.800000 0.000000
1.100000 0.800000 0.000000
1.200000 0.800000 0.000000
1.300000 0.800000 0.000000
1.400000 0.800000 0.000000
1.500000 0.800000 0.000000
1.600000 0.800000 0.000000
1.700000 0.800000 0.000000
1.800000 0.800000 0.000000
1.900000 0.800000 0.000000
2.000000 0.800000 0.000000
2.100000 0.800000 0.000000
2.200000 0.800000 0.000000
2.300000 0.800000 0.000000
2.400000 0.800000 0.000000
2.500000 0.800000 0.000000
2.600000 0.800000 0.000000
2.700000 0.800000 0.000000
2.800000 0.800000 0.000000
2.900000 0.800000 0.000000
3.000000 0.800000 0.000000
3.100000 0.800000 0.000000
3.200000 0.800000 0.000000
3.300000 0.800000 0.000000
3.400000 0.800000 0.000000
3.500000 0.800000 0.000000
3.600000 0.800000 0.000000
[...]
CELL_DATA 16000
SCALARS pressure float 1
LOOKUP_TABLE default
34.6321
34.4553
34.1183
33.6547
33.0904
32.4416
31.7161
30.915
30.0347
29.0691
28.0122
26.8618
25.6219
24.3052
22.9333
21.5346
20.1412
18.7831
17.4847
16.2618
15.1213
14.0625
13.079
12.1607
11.2967
10.476
9.68865
8.92626
8.18208
7.45084
6.72859
6.01242
5.30028
4.59072
3.88278
3.17582
2.46943
1.76341
1.05767
0.352288
34.6878
34.4854
34.1344
33.6632
33.0948
32.4438
31.7174
30.9163
30.0365
29.0715
28.0154
26.8653
25.6252
24.3075
22.9341
21.5338
20.1388
18.7797
17.4809
16.2582
15.1184
14.0605
13.0777
12.1602
11.2968
10.4764
9.68928
8.92697
8.18278
7.45149
6.72915
6.01289
5.30066
4.59102
3.88302
3.176
2.46956
1.76349
1.0577
0.35224
34.808
34.569
34.1938
33.7073
33.1299
32.4748
31.7479
30.9486
30.0721
29.1103
28.0559
26.9045
25.6588
24.3314
22.9447
21.5296
20.1209
18.7511
17.4458
16.2209
15.0825
14.0283
13.0505
12.1384
11.2799
10.4638
9.6802
8.92063
8.17848
7.44866
6.72736
6.0118
5.30003
4.59069
3.88287
3.17594
2.46955
1.76348
1.05765
0.352143
34.9711
34.6898
34.2847
33.7785
33.1898
32.5302
31.8039
31.0092
30.139
29.1834
28.1319
26.9776
25.7213
24.375
22.9631
21.5203
20.0859
18.6963
17.3791
16.1503
15.0145
13.9674
12.999
12.0967
11.2475
10.4395
9.66247
8.90805
8.16979
7.44281
6.72352
6.00936
5.29854
4.58982
3.88238
3.17569
2.46943
1.7634
1.05757
0.352058
35.1558
34.8324
34.3958
33.8687
33.2683
32.6049
31.8814
31.0941
30.2337
29.2871
28.2401
27.0818
25.81
24.4363
22.9879
21.5049
20.0335
18.6157
17.2821
16.0484
14.9171
13.8806
12.9259
12.0378
11.2019
10.4053
9.6375
8.89031
8.1575
7.4345
6.71804
6.00584
5.29635
4.5885
3.88163
3.17528
2.46921
1.76328
1.05749
0.352005
35.3429
34.9813
34.5151
33.9681
33.3572
32.6916
31.973
31.1959
30.3484
29.4136
28.3728
27.21
25.9193
24.5115
23.0171
21.4836
19.9661
18.5139
17.1608
15.9224
14.7976
13.775
12.8374
11.9669
11.1472
10.3644
9.60775
8.86923
8.1429
7.42462
6.71151
6.00164
5.29372
4.58691
3.88071
3.17478
2.46895
1.76316
1.05743
0.351988
35.5154
35.1217
34.63
34.0659
33.4466
32.7806
32.0685
31.3033
30.4706
29.5496
28.5164
27.3496
26.0387
24.5934
23.0481
21.4585
19.8903
18.4008
17.0276
15.7851
14.6687
13.6618
12.7433
11.8921
11.0897
10.3215
9.57672
8.84728
8.12773
7.41437
6.70474
5.99728
5.29098
4.58526
3.87974
3.17425
2.46868
1.76303
1.05739
0.351998
35.6587
35.2402
34.7285
34.1512
33.5259
32.8608
32.1558
31.4026
30.5845
29.6774
28.6524
27.4826
26.1531
24.6719
23.0772
21.4333
19.8162
18.2915
16.9
15.6548
14.5473
13.5562
12.6561
11.823
11.0369
10.2824
9.54844
8.82733
8.11398
7.40509
6.69862
5.99334
5.28851
4.58376
3.87887
3.17377
2.46844
1.76293
1.05737
0.352024
35.7611
35.3257
34.8005
34.2143
33.5852
32.9215
32.2225
31.4791
30.673
29.7774
28.7595
27.5881
26.2442
24.7346
23.1003
21.4126
19.7564
18.204
16.7986
15.5521
14.4523
13.474
12.5886
11.7698
10.9964
10.2525
9.52691
8.81218
8.10355
7.39807
6.69399
5.99036
5.28665
4.58263
3.87822
3.17341
2.46826
1.76286
1.05736
0.352052
35.8144
35.3706
34.8385
34.2479
33.617
32.9542
32.2587
31.5209
30.7215
29.8324
28.8188
27.6467
26.295
24.7696
23.1131
21.4008
19.7228
18.1551
16.7423
15.4953
14.4
13.429
12.5518
11.741
10.9745
10.2364
9.51531
8.80404
8.09795
7.3943
6.69152
5.98877
5.28566
4.58204
3.87787
3.17323
2.46817
1.76283
1.05736
0.35207
35.8144
35.3706
34.8385
34.2479
33.617
32.9542
32.2587
31.5209
30.7216
29.8324
28.8188
27.6467
26.295
24.7696
23.1131
21.4008
19.7229
18.1552
16.7424
15.4955
14.4002
13.4291
12.5519
11.7411
10.9746
10.2365
9.5154
8.80411
8.09801
7.39435
6.69156
5.98881
5.28569
4.58205
3.87789
3.17324
2.46818
1.76283
1.05736
0.352071
35.7611
35.3258
34.8006
34.2144
33.5853
32.9215
32.2226
31.4792
30.6731
29.7774
28.7596
27.5881
26.2441
24.7345
23.1003
21.4126
19.7566
18.2042
16.7989
15.5525
14.4527
13.4744
12.589
11.7702
10.9968
10.2528
9.52717
8.8124
8.10373
7.39821
6.69411
5.99045
5.28672
4.58269
3.87826
3.17344
2.46828
1.76287
1.05737
0.352056
35.6588
35.2403
34.7286
34.1513
33.526
32.8609
32.1559
31.4027
30.5846
29.6775
28.6525
27.4826
26.153
24.6718
23.0772
21.4334
19.8165
18.2919
16.9005
15.6554
14.548
13.5568
12.6567
11.8236
11.0374
10.2829
9.54885
8.82768
8.11426
7.40532
6.69881
5.99348
5.28863
4.58384
3.87894
3.17381
2.46847
1.76295
1.05738
0.35203
35.5156
35.1218
34.6301
34.066
33.4467
32.7807
32.0687
31.3035
30.4708
29.5498
28.5165
27.3496
26.0387
24.5933
23.0481
21.4587
19.8907
18.4014
17.0283
15.7859
14.6695
13.6627
12.7442
11.8929
11.0904
10.3222
9.57726
8.84773
8.12811
7.41467
6.70499
5.99747
5.29113
4.58537
3.87982
3.1743
2.46872
1.76306
1.0574
0.352005
35.3431
34.9815
34.5152
33.9682
33.3573
32.6918
31.9732
31.196
30.3485
29.4138
28.3729
27.21
25.9193
24.5115
23.0172
21.4839
19.9666
18.5146
17.1617
15.9233
14.7987
13.776
12.8384
11.9679
11.148
10.3651
9.6084
8.86977
8.14335
7.42498
6.7118
6.00187
5.29389
4.58704
3.8808
3.17484
2.46899
1.76318
1.05744
0.351995
35.1559
34.8326
34.396
33.8688
33.2685
32.6051
31.8815
31.0942
30.2339
29.2872
28.2402
27.0818
25.81
24.4364
22.9881
21.5052
20.034
18.6165
17.283
16.0495
14.9183
13.8818
12.927
12.0388
11.2028
10.4061
9.63821
8.89092
8.158
7.4349
6.71836
6.00609
5.29653
4.58864
3.88173
3.17535
2.46926
1.76331
1.0575
0.352012
34.9712
34.6899
34.2849
33.7787
33.19
32.5303
31.8041
31.0093
30.1392
29.1835
28.1319
26.9776
25.7213
24.375
22.9633
21.5207
20.0865
18.6971
17.3801
16.1515
15.0157
13.9686
13.0002
12.0978
11.2485
10.4404
9.66322
8.90868
8.17031
7.44323
6.72386
6.00962
5.29873
4.58996
3.88248
3.17576
2.46947
1.76342
1.05758
0.352063
34.8082
34.5691
34.194
33.7074
33.1301
32.475
31.748
30.9488
30.0722
29.1105
28.056
26.9045
25.6589
24.3315
22.9449
21.53
20.1215
18.752
17.4469
16.2221
15.0837
14.0295
13.0517
12.1395
11.2809
10.4647
9.68096
8.92126
8.179
7.44908
6.72768
6.01205
5.30022
4.59083
3.88296
3.176
2.46959
1.7635
1.05765
0.352145
34.688
34.4856
34.1346
33.6634
33.0949
32.444
31.7176
30.9165
30.0366
29.0717
28.0155
26.8654
25.6253
24.3077
22.9344
21.5342
20.1395
18.7806
17.4819
16.2594
15.1196
14.0617
13.0789
12.1613
11.2978
10.4773
9.69001
8.92758
8.18329
7.45189
6.72946
6.01313
5.30083
4.59115
3.8831
3.17605
2.46959
1.7635
1.0577
0.35224
34.6323
34.4555
34.1184
33.6549
33.0906
32.4417
31.7163
30.9152
30.0349
29.0692
28.0123
26.8619
25.6221
24.3054
22.9336
21.5351
20.1418
18.7839
17.4857
16.2629
15.1225
14.0637
13.0801
12.1618
11.2977
10.4768
9.68935
8.92685
8.18256
7.45123
6.72889
6.01265
5.30044
4.59084
3.88286
3.17586
2.46945
1.76341
1.05766
0.352283
34.6878
34.4854
34.1344
33.6632
33.0948
32.4438
31.7174
30.9163
30.0365
29.0715
28.0153
26.8653
25.6251
24.3075
22.9341
21.5338
20.1388
18.7797
17.4809
16.2582
15.1185
14.0605
13.0778
12.1603
11.2968
10.4764
9.68928
8.92697
8.18278
7.45149
6.72915
6.01289
5.30066
4.59102
3.88302
3.176
2.46956
1.76349
1.0577
0.352241
34.7315
34.4907
34.1209
33.641
33.0682
32.4145
31.6858
30.8823
30.0003
29.0341
27.9782
26.8308
25.5961
24.2866
22.9233
21.534
20.1498
18.7999
17.5078
16.289
15.1504
14.0915
13.1061
12.1851
11.3178
10.4936
9.70294
8.9376
8.19088
7.45754
6.73359
6.0161
5.30295
4.59264
3.88414
3.17678
2.47011
1.76387
1.05796
0.352314
34.8477
34.5609
34.1623
33.6649
33.0819
32.4227
31.6914
30.8874
30.0061
29.0412
27.9866
26.8395
25.6037
24.2916
22.9244
21.5308
20.1428
18.7904
17.4975
16.2794
15.1424
14.0856
13.1024
12.1832
11.3173
10.4942
9.7041
8.93904
8.19239
7.45897
6.73488
6.0172
5.30386
4.59337
3.88471
3.17722
2.47044
1.76411
1.05808
0.352296
35.0139
34.6753
34.2423
33.7228
33.1267
32.4609
31.7279
30.9255
30.0478
29.0865
28.0337
26.8847
25.642
24.3175
22.934
21.5226
20.1182
18.7537
17.4539
16.2341
15.0997
14.048
13.0713
12.1587
11.2988
10.4807
9.69475
8.93278
8.18837
7.45652
6.73349
6.0165
5.30357
4.59333
3.8848
3.17736
2.47058
1.76422
1.05814
0.352279
35.2055
34.8151
34.3465
33.8036
33.1936
32.5216
31.7884
30.99
30.1185
29.1631
28.1129
26.9604
25.7057
24.3606
22.9498
21.5086
20.0773
18.6924
17.3812
16.1584
15.0277
13.9843
13.0178
12.1159
11.2659
10.4563
9.67713
8.92047
8.18002
7.45104
6.73
6.01438
5.30235
4.59268
3.88451
3.17726
2.47058
1.76425
1.05817
0.352289
35.4009
34.963
34.4609
33.8957
33.2729
32.5961
31.8644
31.0722
30.2093
29.2619
28.2153
27.0583
25.7882
24.4161
22.9696
21.4894
20.0229
18.6121
17.2864
16.0603
14.9349
13.9022
12.9491
12.0608
11.2234
10.4245
9.6541
8.90421
8.16885
7.44357
6.72515
6.01132
5.30051
4.59162
3.88394
3.177
2.47049
1.76424
1.05819
0.352329
35.5812
35.1031
34.572
33.9876
33.3542
32.6742
31.9456
31.1611
30.3083
29.3703
28.3284
27.1671
25.8801
24.4779
22.9911
21.467
19.9611
18.5217
17.1807
15.9517
14.8329
13.8125
12.8742
12.001
11.1773
10.3901
9.62911
8.88654
8.15666
7.43537
6.71978
6.0079
5.29841
4.59039
3.88326
3.17665
2.47034
1.7642
1.05821
0.352389
35.731
35.2215
34.6677
34.0682
33.4268
32.7452
32.0204
31.244
30.4014
29.473
28.4364
27.2715
25.9689
24.5378
23.0115
21.4444
19.9004
18.4338
17.0789
15.8481
14.7363
13.7281
12.8042
11.9453
11.1345
10.3582
9.60594
8.87015
8.14534
7.42773
6.71476
6.00469
5.29642
4.5892
3.88259
3.1763
2.47018
1.76416
1.05823
0.352456
35.838
35.3071
34.7377
34.1279
33.4813
32.7991
32.0778
31.3081
30.474
29.5536
28.5216
27.3547
26.0401
24.5859
23.0279
21.4259
19.8512
18.3632
16.9979
15.7663
14.6605
13.6623
12.7499
11.9022
11.1014
10.3336
9.58815
8.85757
8.13666
7.42188
6.7109
6.00222
5.29489
4.58829
3.88207
3.17603
2.47006
1.76412
1.05825
0.352511
35.8937
35.3519
34.7746
34.1597
33.5105
32.8282
32.109
31.3431
30.5137
29.598
28.5689
27.401
26.0799
24.6129
23.037
21.4154
19.8235
18.3238
16.9529
15.7211
14.6189
13.6263
12.7202
11.8787
11.0835
10.3203
9.57853
8.85078
8.13197
7.41872
6.70883
6.0009
5.29406
4.5878
3.8818
3.17589
2.46999
1.7641
1.05826
0.352543
35.8937
35.3519
34.7746
34.1597
33.5105
32.8282
32.109
31.3431
30.5138
29.598
28.5689
27.401
26.0799
24.6129
23.037
21.4155
19.8236
18.3239
16.953
15.7212
14.619
13.6265
12.7204
11.8789
11.0836
10.3204
9.57861
8.85085
8.13203
7.41877
6.70886
6.00093
5.29408
4.58781
3.88181
3.1759
2.47
1.7641
1.05826
0.352543
35.838
35.3071
34.7377
34.128
33.4814
32.7992
32.0779
31.3082
30.474
29.5536
28.5217
27.3547
26.04
24.5859
23.0279
21.426
19.8514
18.3635
16.9982
15.7666
14.6609
13.6627
12.7502
11.9025
11.1018
10.3339
9.58838
8.85777
8.13682
7.42201
6.71101
6.00231
5.29495
4.58834
3.88211
3.17606
2.47008
1.76413
1.05825
0.352511
35.7311
35.2216
34.6678
34.0683
33.4269
32.7453
32.0205
31.2441
30.4015
29.4731
28.4364
27.2716
25.9689
24.5378
23.0116
21.4446
19.9006
18.4342
17.0794
15.8487
14.7369
13.7287
12.8048
11.9458
11.135
10.3586
9.60632
8.87047
8.1456
7.42795
6.71493
6.00483
5.29652
4.58928
3.88265
3.17634
2.47021
1.76417
1.05823
0.352455
35.5813
35.1032
34.5722
33.9877
33.3543
32.6743
31.9457
31.1613
30.3085
29.3704
28.3285
27.1671
25.8801
24.4779
22.9911
21.4672
19.9614
18.5222
17.1813
15.9524
14.8337
13.8133
12.875
12.0018
11.178
10.3907
9.62961
8.88696
8.15701
7.43565
6.72001
6.00809
5.29855
4.59049
3.88333
3.1767
2.47037
1.76421
1.05821
0.352388
35.401
34.9632
34.461
33.8958
33.2731
32.5963
31.8646
31.0724
30.2095
29.262
28.2154
27.0584
25.7882
24.4162
22.9697
21.4897
20.0234
18.6127
17.2871
16.0611
14.9358
13.9031
12.95
12.0617
11.2242
10.4252
9.6547
8.90472
8.16928
7.44391
6.72543
6.01154
5.30067
4.59175
3.88403
3.17706
2.47052
1.76426
1.05819
0.352327
35.2057
34.8153
34.3467
33.8037
33.1938
32.5218
31.7886
30.9902
30.1186
29.1632
28.113
26.9605
25.7058
24.3607
22.95
21.509
20.0778
18.6931
17.382
16.1594
15.0288
13.9853
13.0188
12.1169
11.2668
10.4571
9.6778
8.92103
8.18049
7.45142
6.73031
6.01461
5.30253
4.59281
3.8846
3.17732
2.47062
1.76427
1.05817
0.352287
35.014
34.6755
34.2425
33.723
33.1269
32.461
31.728
30.9256
30.0479
29.0866
28.0338
26.8848
25.6421
24.3177
22.9343
21.523
20.1188
18.7544
17.4548
16.2352
15.1008
14.0491
13.0723
12.1597
11.2998
10.4816
9.69546
8.93337
8.18886
7.45692
6.7338
6.01674
5.30376
4.59346
3.8849
3.17742
2.47062
1.76423
1.05814
0.352277
34.8479
34.5611
34.1625
33.6651
33.0821
32.4228
31.6915
30.8875
30.0063
29.0414
27.9867
26.8396
25.6038
24.2917
22.9247
21.5312
20.1434
18.7912
17.4985
16.2805
15.1436
14.0867
13.1035
12.1843
11.3183
10.495
9.70481
8.93964
8.19289
7.45937
6.73519
6.01744
5.30404
4.5935
3.8848
3.17727
2.47047
1.76412
1.05808
0.352293
34.7317
34.4909
34.1211
33.6411
33.0684
32.4147
31.6859
30.8824
30.0005
29.0342
27.9784
26.8309
25.5962
24.2868
22.9236
21.5345
20.1505
18.8007
17.5088
16.2901
15.1516
14.0926
13.1072
12.1861
11.3187
10.4944
9.70365
8.93819
8.19136
7.45793
6.7339
6.01634
5.30312
4.59276
3.88422
3.17682
2.47013
1.76388
1.05795
0.35231
34.688
34.4856
34.1346
33.6634
33.0949
32.444
31.7176
30.9165
30.0367
29.0717
28.0155
26.8654
25.6253
24.3077
22.9344
21.5342
20.1394
18.7805
17.4819
16.2593
15.1196
14.0616
13.0788
12.1613
11.2977
10.4772
9.68996
8.92754
8.18325
7.45185
6.72943
6.0131
5.30081
4.59113
3.88309
3.17604
2.46958
1.76349
1.05769
0.352231
34.808
34.569
34.1938
33.7073
33.1299
32.4748
31.7478
30.9486
30.072
29.1103
28.0558
26.9044
25.6588
24.3313
22.9446
21.5296
20.1208
18.7511
17.4458
16.221
15.0825
14.0283
13.0506
12.1384
11.2799
10.4639
9.68022
8.92064
8.17849
7.44867
6.72736
6.0118
5.30004
4.5907
3.88287
3.17595
2.46955
1.76348
1.05765
0.352143
34.8477
34.5609
34.1623
33.6649
33.0819
32.4227
31.6914
30.8873
30.0061
29.0412
27.9866
26.8395
25.6037
24.2915
22.9244
21.5308
20.1428
18.7904
17.4975
16.2794
15.1425
14.0856
13.1024
12.1832
11.3174
10.4942
9.70411
8.93905
8.19239
7.45898
6.73488
6.0172
5.30386
4.59337
3.88471
3.17722
2.47044
1.76411
1.05808
0.352296
34.9597
34.6222
34.1908
33.6735
33.0785
32.4121
31.6766
30.8701
29.988
29.0233
27.9699
26.8249
25.5916
24.2822
22.918
21.5276
20.1432
18.7948
17.5058
16.291
15.1565
14.101
13.1179
12.1981
11.3308
10.506
9.71409
8.94726
8.199
7.46418
6.7389
6.02026
5.30615
4.59506
3.88596
3.17812
2.47109
1.76456
1.05835
0.352328
35.1262
34.7321
34.2626
33.7206
33.1106
32.436
31.6971
30.8909
30.011
29.0493
27.9981
26.8527
25.6151
24.2971
22.921
21.5179
20.1225
18.7668
17.475
16.2613
15.1306
14.08
13.1023
12.1871
11.3238
10.5019
9.71215
8.94672
8.1993
7.46494
6.73985
6.02124
5.30706
4.59587
3.88663
3.17867
2.47152
1.76487
1.05853
0.352358
35.3224
34.8708
34.362
33.794
33.1684
32.486
31.7455
30.942
30.0674
29.1114
28.0634
26.9156
25.6679
24.3313
22.9303
21.5004
20.0816
18.7097
17.4102
16.1966
15.0714
14.0296
13.0615
12.1557
11.3006
10.4854
9.70082
8.93928
8.19464
7.46219
6.73837
6.02057
5.30687
4.59595
3.88685
3.17893
2.47177
1.76508
1.05867
0.352422
35.5248
35.0199
34.4738
33.8812
33.241
32.5524
31.8121
31.0139
30.1475
29.1997
28.1561
27.0052
25.7432
24.3802
22.9437
21.4756
20.0236
18.629
17.3191
16.1057
14.9883
13.9582
13.0033
12.1103
11.2663
10.4604
9.6832
8.9272
8.18662
7.45705
6.73522
6.01874
5.3059
4.5955
3.88671
3.17896
2.47187
1.76521
1.05879
0.35252
35.713
35.1623
34.5839
33.9699
33.3175
32.6244
31.8863
31.0952
30.2388
29.3011
28.2637
27.11
25.8319
24.4382
22.9594
21.4457
19.9545
18.534
17.213
16.001
14.8932
13.877
12.9373
12.0586
11.2273
10.4318
9.66281
8.91306
8.17709
7.45081
6.73127
6.01634
5.30452
4.59477
3.88638
3.17886
2.4719
1.76529
1.0589
0.352638
35.87
35.2833
34.6793
34.0484
33.3868
32.6911
31.9562
31.1727
30.3269
29.4
28.3697
27.2146
25.9217
24.4973
22.9753
21.4148
19.884
18.4383
17.1077
15.8984
14.801
13.7989
12.8741
12.0094
11.1901
10.4046
9.64334
8.89951
8.16789
7.44474
6.72738
6.01393
5.3031
4.59399
3.88599
3.17871
2.47188
1.76534
1.05898
0.352757
35.9825
35.371
34.7493
34.1069
33.4392
32.7423
32.0104
31.2336
30.3968
29.4791
28.4555
27.3004
25.9963
24.5471
22.9887
21.3885
19.8247
18.359
17.0219
15.8158
14.7276
13.7373
12.8245
11.9709
11.1612
10.3833
9.62817
8.88894
8.1607
7.43997
6.72431
6.01202
5.30196
4.59335
3.88566
3.17857
2.47185
1.76537
1.05905
0.352852
36.041
35.4169
34.7863
34.1381
33.4674
32.7701
32.04
31.267
30.4353
29.5232
28.5038
27.3491
26.0392
24.5761
22.9966
21.3731
19.7903
18.3137
16.9734
15.7697
14.6869
13.7033
12.7973
11.9499
11.1454
10.3718
9.61993
8.8832
8.1568
7.43739
6.72264
6.01098
5.30134
4.593
3.88548
3.17849
2.47183
1.76538
1.05908
0.352904
36.041
35.417
34.7863
34.1381
33.4674
32.7701
32.0401
31.267
30.4354
29.5232
28.5038
27.349
26.0392
24.5761
22.9966
21.3732
19.7904
18.3138
16.9735
15.7698
14.6871
13.7035
12.7975
11.95
11.1455
10.3719
9.62001
8.88326
8.15685
7.43743
6.72268
6.01101
5.30136
4.59301
3.88549
3.1785
2.47183
1.76538
1.05908
0.352903
35.9825
35.371
34.7494
34.107
33.4393
32.7424
32.0105
31.2337
30.3968
29.4792
28.4556
27.3003
25.9962
24.5471
22.9887
21.3885
19.8249
18.3593
17.0222
15.8162
14.728
13.7377
12.8249
11.9712
11.1615
10.3836
9.6284
8.88913
8.16086
7.4401
6.72441
6.01211
5.30203
4.5934
3.8857
3.17859
2.47186
1.76538
1.05905
0.352849
35.8701
35.2834
34.6794
34.0485
33.3869
32.6912
31.9563
31.1728
30.3271
29.4001
28.3698
27.2146
25.9216
24.4973
22.9754
21.4149
19.8843
18.4387
17.1082
15.899
14.8016
13.7995
12.8747
12.0099
11.1906
10.405
9.6437
8.89982
8.16815
7.44495
6.72755
6.01407
5.3032
4.59407
3.88605
3.17875
2.4719
1.76535
1.05899
0.352752
35.7132
35.1625
34.584
33.97
33.3176
32.6245
31.8864
31.0953
30.239
29.3012
28.2638
27.11
25.8319
24.4382
22.9595
21.4459
19.9549
18.5345
17.2137
16.0018
14.8939
13.8778
12.938
12.0593
11.2279
10.4324
9.66329
8.91347
8.17743
7.45109
6.73149
6.01652
5.30466
4.59488
3.88645
3.17891
2.47193
1.76531
1.0589
0.352633
35.525
35.0201
34.474
33.8813
33.2412
32.5525
31.8123
31.0141
30.1477
29.1998
28.1563
27.0053
25.7432
24.3803
22.9439
21.4759
20.024
18.6296
17.3199
16.1066
14.9892
13.9592
13.0042
12.1111
11.2671
10.4611
9.68378
8.92769
8.18703
7.45739
6.73549
6.01895
5.30606
4.59562
3.8868
3.17902
2.47191
1.76523
1.05879
0.352512
35.3225
34.871
34.3621
33.7942
33.1685
32.4862
31.7456
30.9421
30.0676
29.1116
28.0635
26.9158
25.668
24.3314
22.9305
21.5007
20.0821
18.7104
17.4111
16.1976
15.0725
14.0306
13.0625
12.1566
11.3014
10.4861
9.70147
8.93982
8.19509
7.46256
6.73867
6.0208
5.30705
4.59608
3.88694
3.17899
2.47181
1.7651
1.05867
0.352414
35.1264
34.7322
34.2628
33.7208
33.1108
32.4362
31.6973
30.891
30.0111
29.0495
27.9983
26.8528
25.6152
24.2972
22.9212
21.5183
20.1231
18.7676
17.4759
16.2624
15.1316
14.0811
13.1033
12.1881
11.3247
10.5027
9.71284
8.9473
8.19978
7.46533
6.74016
6.02148
5.30725
4.596
3.88673
3.17873
2.47156
1.76489
1.05853
0.352349
34.9599
34.6224
34.191
33.6736
33.0787
32.4123
31.6767
30.8703
29.9881
29.0234
27.97
26.825
25.5917
24.2824
22.9183
21.5281
20.1439
18.7956
17.5068
16.2921
15.1576
14.1021
13.119
12.1991
11.3318
10.5068
9.71479
8.94785
8.19948
7.46457
6.73921
6.02049
5.30632
4.59519
3.88604
3.17818
2.47112
1.76457
1.05835
0.352318
34.8479
34.5611
34.1625
33.6651
33.0821
32.4228
31.6915
30.8875
30.0063
29.0414
27.9867
26.8396
25.6038
24.2917
22.9247
21.5313
20.1434
18.7913
17.4985
16.2805
15.1436
14.0868
13.1035
12.1843
11.3183
10.495
9.7048
8.93962
8.19286
7.45935
6.73517
6.01742
5.30402
4.59348
3.88479
3.17726
2.47046
1.76411
1.05807
0.352286
34.8082
34.5691
34.194
33.7075
33.1301
32.475
31.748
30.9488
30.0722
29.1105
28.056
26.9045
25.6589
24.3315
22.9449
21.53
20.1215
18.752
17.4469
16.2221
15.0837
14.0295
13.0517
12.1394
11.2808
10.4646
9.68087
8.92118
8.17893
7.44901
6.72762
6.012
5.30017
4.59079
3.88292
3.17597
2.46956
1.76347
1.05763
0.352126
34.9711
34.6898
34.2847
33.7785
33.1898
32.5302
31.8039
31.0091
30.1389
29.1833
28.1317
26.9774
25.7211
24.3748
22.963
21.5203
20.0859
18.6963
17.3792
16.1504
15.0146
13.9675
12.9991
12.0967
11.2476
10.4396
9.6625
8.90807
8.16981
7.44282
6.72353
6.00937
5.29854
4.58982
3.88238
3.17569
2.46943
1.7634
1.05757
0.352058
35.0139
34.6753
34.2423
33.7228
33.1267
32.4609
31.7278
30.9254
30.0477
29.0864
28.0336
26.8846
25.6419
24.3175
22.934
21.5225
20.1182
18.7537
17.4539
16.2342
15.0997
14.0481
13.0713
12.1587
11.2989
10.4808
9.69477
8.93279
8.18838
7.45653
6.73349
6.0165
5.30358
4.59333
3.8848
3.17736
2.47058
1.76422
1.05814
0.352279
35.1262
34.732
34.2626
33.7206
33.1106
32.436
31.6971
30.8908
30.0109
29.0493
27.9981
26.8526
25.615
24.297
22.9209
21.5178
20.1225
18.7668
17.475
16.2614
15.1306
14.0801
13.1023
12.1872
11.3238
10.5019
9.71216
8.94673
8.19931
7.46494
6.73985
6.02124
5.30707
4.59587
3.88663
3.17867
2.47152
1.76487
1.05853
0.352358
35.2943
34.8399
34.3291
33.7601