# vtk DataFile Version 2.0
I need something to put here
ASCII

DATASET STRUCTURED_GRID
DIMENSIONS 41 21 21
POINTS 18081 float
0.000000 0.000000 0.000000
0.100000 0.000000 0.000000
0.200000 0.000000 0.000000
0.300000 0.000000 0.000000
0.400000 0.000000 0.000000
0.500000 0.000000 0.000000
0.600000 0.000000 0.000000
0.700000 0.000000 0.000000
0.800000 0.000000 0.000000
0.900000 0.000000 0.000000
1.000000 0.000000 0.000000
1.100000 0.000000 0.000000
1.200000 0.000000 0.000000
1.300000 0.000000 0.000000
1.400000 0.000000 0.000000
1.500000 0.000000 0.000000
1.600000 0.000000 0.000000
1.700000 0.000000 0.000000
1.800000 0.000000 0.000000
1.900000 0.000000 0.000000
2.000000 0.000000 0.000000
2.100000 0.000000 0.000000
2.200000 0.000000 0.000000
2.300000 0.000000 0.000000
2.400000 0.000000 0.000000
2.500000 0.000000 0.000000
2.600000 0.000000 0.000000
2.700000 0.000000 0.000000
2.800000 0.000000 0.000000
2.900000 0.000000 0.000000
3.000000 0.000000 0.000000
3.100000 0.000000 0.000000
3.200000 0.000000 0.000000
3.300000 0.000000 0.000000
3.400000 0.000000 0.000000
3.500000 0.000000 0.000000
3.600000 0.000000 0.000000
3.700000 0.000000 0.000000
3.800000 0.000000 0.000000
3.900000 0.000000 0.000000
4.000000 0.000000 0.000000
0.000000 0.100000 0.000000
0.100000 0.100000 0.000000
0.200000 0.100000 0.000000
0.300000 0.100000 0.000000
0.400000 0.100000 0.000000
0.500000 0.100000 0.000000
0.600000 0.100000 0.000000
0.700000 0.100000 0.000000
0.800000 0.100000 0.000000
0.900000 0.100000 0.000000
1.000000 0.100000 0.000000
1.100000 0.100000 0.000000
1.200000 0.100000 0.000000
1.300000 0.100000 0.000000
1.400000 0.100000 0.000000
1.500000 0.100000 0.000000
1.600000 0.100000 0.000000
1.700000 0.100000 0.000000
1.800000 0.100000 0.000000
1.900000 0.100000 0.000000
2.000000 0.100000 0.000000
2.100000 0.100000 0.000000
2.200000 0.100000 0.000000
2.300000 0.100000 0.000000
2.400000 0.100000 0.000000
2.500000 0.100000 0.000000
2.600000 0.100000 0.000000
2.700000 0.100000 0.000000
2.800000 0.100000 0.000000
2.900000 0.100000 0.000000
3.000000 0.100000 0.000000
3.100000 0.100000 0.000000
3.200000 0.100000 0.000000
3.300000 0.100000 0.000000
3.400000 0.100000 0.000000
3.500000 0.100000 0.000000
3.600000 0.100000 0.000000
3.700000 0.100000 0.000000
3.800000 0.100000 0.000000
3.900000 0.100000 0.000000
4.000000 0.100000 0.000000
0.000000 0.200000 0.000000
0.100000 0.200000 0.000000
0.200000 0.200000 0.000000
0.300000 0.200000 0.000000
0.400000 0.200000 0.000000
0.500000 0.200000 0.000000
0.600000 0.200000 0.000000
0.700000 0.200000 0.000000
0.800000 0.200000 0.000000
0.900000 0.200000 0.000000
1.000000 0.200000 0.000000
1.100000 0.200000 0.000000
1.200000 0.200000 0.000000
1.300000 0.200000 0.000000
1.400000 0.200000 0.000000
1.500000 0.200000 0.000000
1.600000 0.200000 0.000000
1.700000 0.200000 0.000000
1.800000 0.200000 0.000000
1.900000 0.200000 0.000000
2.000000 0.200000 0.000000
2.100000 0.200000 0.000000
2.200000 0.200000 0.000000
2.300000 0.200000 0.000000
2.400000 0.200000 0.000000
2.500000 0.200000 0.000000
2.600000 0.200000 0.000000
2.700000 0.200000 0.000000
2.800000 0.200000 0.000000
2.900000 0.200000 0.000000
3.000000 0.200000 0.000000
3.100000 0.200000 0.000000
3.200000 0.200000 0.000000
3.300000 0.200000 0.000000
3.400000 0.200000 0.000000
3.500000 0.200000 0.000000
3.600000 0.200000 0.000000
3.700000 0.200000 0.000000
3.800000 0.200000 0.000000
3.900000 0.200000 0.000000
4.000000 0.200000 0.000000
0.000000 0.300000 0.000000
0.100000 0.300000 0.000000
0.200000 0.300000 0.000000
0.300000 0.300000 0.000000
0.400000 0.300000 0.000000
0.500000 0.300000 0.000000
0.600000 0.300000 0.000000
0.700000 0.300000 0.000000
0.800000 0.300000 0.000000
0.900000 0.300000 0.000000
1.000000 0.300000 0.000000
1.100000 0.300000 0.000000
1.200000 0.300000 0.000000
1.300000 0.300000 0.000000
1.400000 0.300000 0.000000
1.500000 0.300000 0.000000
1.600000 0.300000 0.000000
1.700000 0.300000 0.000000
1.800000 0.300000 0.000000
1.900000 0.300000 0.000000
2.000000 0.300000 0.000000
2.100000 0.300000 0.000000
2.200000 0.300000 0.000000
2.300000 0.300000 0.000000
2.400000 0.300000 0.000000
2.500000 0.300000 0.000000
2.600000 0.300000 0.000000
2.700000 0.300000 0.000000
2.800000 0.300000 0.000000
2.900000 0.300000 0.000000
3.000000 0.300000 0.000000
3.100000 0.300000 0.000000
3.200000 0.300000 0.000000
3.300000 0.300000 0.000000
3.400000 0.300000 0.000000
3.500000 0.300000 0.000000
3.600000 0.300000 0.000000
3.700000 0.300000 0.000000
3.800000 0.300000 0.000000
3.900000 0.300000 0.000000
4.000000 0.300000 0.000000
0.000000 0.400000 0.000000
0.100000 0.400000 0.000000
0.200000 0.400000 0.000000
0.300000 0.400000 0.000000
0.400000 0.400000 0.000000
0.500000 0.400000 0.000000
0.600000 0.400000 0.000000
0.700000 0.400000 0.000000
0.800000 0.400000 0.000000
0.900000 0.400000 0.000000
1.000000 0.400000 0.000000
1.100000 0.400000 0.000000
1.200000 0.400000 0.000000
1.300000 0.400000 0.000000
1.400000 0.400000 0.000000
1.500000 0.400000 0.000000
1.600000 0.400000 0.000000
1.700000 0.400000 0.000000
1.800000 0.400000 0.000000
1.900000 0.400000 0.000000
2.000000 0.400000 0.000000
2.100000 0.400000 0.000000
2.200000 0.400000 0.000000
2.300000 0.400000 0.000000
2.400000 0.400000 0.000000
2.500000 0.400000 0.000000
2.600000 0.400000 0.000000
2.700000 0.400000 0.000000
2.800000 0.400000 0.000000
2.900000 0.400000 0.000000
3.000000 0.400000 0.000000
3.100000 0.400000 0.000000
3.200000 0.400000 0.000000
3.300000 0.400000 0.000000
3.400000 0.400000 0.000000
3.500000 0.400000 0.000000
3.600000 0.400000 0.000000
3.700000 0.400000 0.000000
3.800000 0.400000 0.000000
3.900000 0.400000 0.000000
4.000000 0.400000 0.000000
0.000000 0.500000 0.000000
0.100000 0.500000 0.000000
0.200000 0.500000 0.000000
0.300000 0.500000 0.000000
0.400000 0.500000 0.000000
0.500000 0.500000 0.000000
0.600000 0.500000 0.000000
0.700000 0.500000 0.000000
0.800000 0.500000 0.000000
0.900000 0.500000 0.000000
1.000000 0.500000 0.000000
1.100000 0.500000 0.000000
1.200000 0.500000 0.000000
1.300000 0.500000 0.000000
1.400000 0.500000 0.000000
1.500000 0.500000 0.000000
1.600000 0.500000 0.000000
1.700000 0.500000 0.000000
1.800000 0.500000 0.000000
1.900000 0.500000 0.000000
2.000000 0.500000 0.000000
2.100000 0.500000 0.000000
2.200000 0.500000 0.000000
2.300000 0.500000 0.000000
2.400000 0.500000 0.000000
2.500000 0.500000 0.000000
2.600000 0.500000 0.000000
2.700000 0.500000 0.000000
2.800000 0.500000 0.000000
2.900000 0.500000 0.000000
3.000000 0.500000 0.000000
3.100000 0.500000 0.000000
3.200000 0.500000 0.000000
3.300000 0.500000 0.000000
3.400000 0.500000 0.000000
3.500000 0.500000 0.000000
3.600000 0.500000 0.000000
3.700000 0.500000 0.000000
3.800000 0.500000 0.000000
3.900000 0.500000 0.000000
4.000000 0.500000 0.000000
0.000000 0.600000 0.000000
0.100000 0.600000 0.000000
0.200000 0.600000 0.000000
0.300000 0.600000 0.000000
0.400000 0.600000 0.000000
0.500000 0.600000 0.000000
0.600000 0.600000 0.000000
0.700000 0.600000 0.000000
0.800000 0.600000 0.000000
0.900000 0.600000 0.000000
1.000000 0.600000 0.000000
1.100000 0.600000 0.000000
1.200000 0.600000 0.000000
1.300000 0.600000 0.000000
1.400000 0.600000 0.000000
1.500000 0.600000 0.000000
1.600000 0.600000 0.000000
1.700000 0.600000 0.000000
1.800000 0.600000 0.000000
1.900000 0.600000 0.000000
2.000000 0.600000 0.000000
2.100000 0.600000 0.000000
2.200000 0.600000 0.000000
2.300000 0.600000 0.000000
2.400000 0.600000 0.000000
2.500000 0.600000 0.000000
2.600000 0.600000 0.000000
2.700000 0.600000 0.000000
2.800000 0.600000 0.000000
2.900000 0.600000 0.000000
3.000000 0.600000 0.000000
3.100000 0.600000 0.000000
3.200000 0.600000 0.000000
3.300000 0.600000 0.000000
3.400000 0.600000 0.000000
3.500000 0.600000 0.000000
3.600000 0.600000 0.000000
3.700000 0.600000 0.000000
3.800000 0.600000 0.000000
3.900000 0.600000 0.000000
4.000000 0.600000 0.000000
0.000000 0.700000 0.000000
0.100000 0.700000 0.000000
0.200000 0.700000 0.000000
0.300000 0.700000 0.000000
0.400000 0.700000 0.000000
0.500000 0.700000 0.000000
0.600000 0.700000 0.000000
0.700000 0.700000 0.000000
0.800000 0.700000 0.000000
0.900000 0.700000 0.000000
1.000000 0.700000 0.000000
1.100000 0.700000 0.000000
1.200000 0.700000 0.000000
1.300000 0.700000 0.000000
1.400000 0.700000 0.000000
1.500000 0.700000 0.000000
1.600000 0.700000 0.000000
1.700000 0.700000 0.000000
1.800000 0.700000 0.000000
1.900000 0.700000 0.000000
2.000000 0.700000 0.000000
2.100000 0.700000 0.000000
2.200000 0.700000 0.000000
2.300000 0.700000 0.000000
2.400000 0.700000 0.000000
2.500000 0.700000 0.000000
2.600000 0.700000 0.000000
2.700000 0.700000 0.000000
2.800000 0.700000 0.000000
2.900000 0.700000 0.000000
3.000000 0.700000 0.000000
3.100000 0.700000 0.000000
3.200000 0.700000 0.000000
3.300000 0.700000 0.000000
3.400000 0.700000 0.000000
3.500000 0.700000 0.000000
3.600000 0.700000 0.000000
3.700000 0.700000 0.000000
3.800000 0.700000 0.000000
3.900000 0.700000 0.000000
4.000000 0.700000 0.000000
0.000000 0.800000 0.000000
0.100000 0.800000 0.000000
0.200000 0.800000 0.000000
0.300000 0.800000 0.000000
0.400000 0.800000 0.000000
0.500000 0.800000 0.000000
0.600000 0.800000 0.000000
0.700000 0.800000 0.000000
0.800000 0.800000 0.000000
0.900000 0.800000 0.000000
1.000000 0.800000 0.000000
1.100000 0.800000 0.000000
1.200000 0.800000 0.000000
1.300000 0.800000 0.000000
1.400000 0.800000 0.000000
1.500000 0.800000 0.000000
1.600000 0.800000 0.000000
1.700000 0.800000 0.000000
1.800000 0.800000 0.000000
1.900000 0.800000 0.000000
2.000000 0.800000 0.000000
2.100000 0.800000 0.000000
2.200000 0.800000 0.000000
2.300000 0.800000 0.000000
2.400000 0.800000 0.000000
2.500000 0.800000 0.000000
2.600000 0.800000 0.000000
2.700000 0.800000 0.000000
2.800000 0.800000 0.000000
2.900000 0.800000 0.000000
3.000000 0.800000 0.000000
3.100000 0.800000 0.000000
3.200000 0.800000 0.000000
3.300000 0.800000 0.000000
3.400000 0.800000 0.000000
3.500000 0.800000 0.000000
3.600000 0.800000 0.000000
[...]
CELL_DATA 16000
SCALARS pressure float 1
LOOKUP_TABLE default
34.9745
34.798
34.4608
33.9961
33.4291
32.7756
32.0431
31.2322
30.3392
29.3578
28.2826
27.1119
25.8507
24.5125
23.1194
21.7004
20.287
18.9094
17.5919
16.3507
15.1933
14.1192
13.1225
12.1933
11.3205
10.493
9.70048
8.93431
8.18741
7.45426
6.7307
6.01366
5.30095
4.59104
3.88288
3.17579
2.46934
1.76329
1.05756
0.352228
35.03
34.8281
34.4771
34.0047
33.4335
32.7779
32.0446
31.2337
30.3411
29.3604
28.2858
27.1154
25.8538
24.5147
23.1202
21.6995
20.2846
18.906
17.5881
16.3472
15.1903
14.1171
13.1212
12.1928
11.3206
10.4934
9.7011
8.93502
8.18812
7.45492
6.73128
6.01415
5.30135
4.59135
3.88312
3.17598
2.46948
1.76338
1.0576
0.352176
35.1503
34.9119
34.5369
34.0494
33.4695
32.81
32.0762
31.2673
30.378
29.4003
28.3272
27.1549
25.8875
24.5382
23.1304
21.695
20.2665
18.8772
17.5527
16.3093
15.1536
14.084
13.093
12.1699
11.3028
10.4801
9.69148
8.92826
8.18352
7.45188
6.72934
6.01296
5.30066
4.59098
3.88295
3.17591
2.46946
1.76336
1.05753
0.352068
35.3139
35.0335
34.6288
34.1219
33.531
32.8672
32.1344
31.3303
30.4474
29.4755
28.4046
27.2287
25.9498
24.5812
23.1482
21.6853
20.2313
18.8222
17.4855
16.2376
15.0841
14.0212
13.0395
12.1265
11.2689
10.4545
9.67271
8.91489
8.17424
7.44561
6.72521
6.01032
5.29903
4.59002
3.88241
3.17562
2.46931
1.76326
1.05744
0.351973
35.4998
35.1774
34.7414
34.2138
33.6117
32.9446
32.215
31.4186
30.5455
29.5822
28.515
27.3338
26.0382
24.6416
23.1719
21.6692
20.1786
18.7413
17.3876
16.1342
14.9845
13.9319
12.9638
12.0651
11.221
10.4184
9.64628
8.89605
8.16113
7.43671
6.71932
6.00652
5.29665
4.58858
3.88157
3.17516
2.46906
1.76313
1.05735
0.351912
35.6885
35.3279
34.8625
34.3155
33.7033
33.0346
32.3104
31.5245
30.6643
29.7124
28.6502
27.4629
26.147
24.7154
23.1999
21.6472
20.1111
18.6393
17.2655
16.0063
14.8624
13.8231
12.872
11.9911
11.1636
10.3753
9.61481
8.87364
8.14556
7.42613
6.7123
6.00198
5.29379
4.58684
3.88056
3.1746
2.46876
1.76298
1.05727
0.351887
35.8628
35.4702
34.9794
34.4157
33.7955
33.1269
32.4099
31.6363
30.7909
29.8522
28.7964
27.6035
26.2657
24.7958
23.2295
21.6215
20.0353
18.5262
17.1315
15.8672
14.7305
13.7065
12.7744
11.913
11.1033
10.3302
9.58196
8.85032
8.12938
7.41516
6.70502
5.99727
5.29082
4.58503
3.87949
3.174
2.46845
1.76283
1.05722
0.351892
36.0078
35.5904
35.0799
34.5032
33.8774
33.2103
32.5008
31.7396
30.9089
29.9836
28.9348
27.7373
26.3793
24.8727
23.2573
21.5958
19.9614
18.417
17.0032
15.7352
14.6065
13.5977
12.6839
11.8409
11.0479
10.2889
9.55202
8.82912
8.1147
7.40522
6.69844
5.99301
5.28814
4.58339
3.87853
3.17347
2.46818
1.76271
1.05719
0.351914
36.1115
35.6773
35.1533
34.568
33.9388
33.2734
32.5704
31.8193
31.0006
30.0863
29.0438
27.8433
26.4697
24.9342
23.2794
21.5748
19.9019
18.3298
16.9015
15.6312
14.5095
13.5131
12.6139
11.7854
11.0055
10.2574
9.52922
8.81301
8.10357
7.39769
6.69346
5.98979
5.28612
4.58216
3.87781
3.17307
2.46798
1.76262
1.05717
0.351939
36.1656
35.7229
35.1921
34.6025
33.9717
33.3075
32.6081
31.8628
31.0508
30.1429
29.104
27.9022
26.5202
24.9685
23.2917
21.5629
19.8685
18.2811
16.845
15.5737
14.4561
13.4668
12.5758
11.7553
10.9825
10.2403
9.51692
8.80434
8.09759
7.39365
6.69079
5.98807
5.28504
4.5815
3.87743
3.17286
2.46787
1.76258
1.05716
0.351953
36.1657
35.7229
35.1922
34.6025
33.9718
33.3075
32.6082
31.8628
31.0509
30.1429
29.1041
27.9022
26.5202
24.9685
23.2917
21.563
19.8686
18.2812
16.8451
15.5738
14.4562
13.4669
12.5759
11.7554
10.9826
10.2404
9.51698
8.80439
8.09763
7.39369
6.69082
5.98809
5.28505
4.58151
3.87744
3.17286
2.46787
1.76258
1.05716
0.351952
36.1117
35.6775
35.1535
34.5682
33.939
33.2736
32.5706
31.8195
31.0008
30.0865
29.0439
27.8434
26.4698
24.9342
23.2794
21.5749
19.9021
18.33
16.9018
15.6315
14.5098
13.5134
12.6143
11.7857
11.0057
10.2576
9.52941
8.81317
8.1037
7.39779
6.69354
5.98986
5.28617
4.58219
3.87784
3.17309
2.46799
1.76263
1.05717
0.351934
36.0081
35.5906
35.0801
34.5035
33.8777
33.2106
32.5011
31.74
30.9093
29.9839
28.9351
27.7375
26.3795
24.8729
23.2574
21.596
19.9617
18.4174
17.0037
15.7357
14.607
13.5982
12.6844
11.8414
11.0483
10.2892
9.55232
8.82937
8.11491
7.40538
6.69857
5.99311
5.28822
4.58345
3.87858
3.1735
2.4682
1.76272
1.05719
0.351907
35.8632
35.4705
34.9798
34.416
33.7959
33.1274
32.4103
31.6368
30.7914
29.8527
28.7969
27.6038
26.266
24.796
23.2297
21.6218
20.0357
18.5267
17.1321
15.8678
14.7312
13.7072
12.7751
11.9136
11.1038
10.3306
9.58235
8.85064
8.12964
7.41537
6.70519
5.9974
5.29092
4.5851
3.87955
3.17404
2.46848
1.76284
1.05722
0.351882
35.689
35.3284
34.863
34.3159
33.7037
33.0351
32.3109
31.525
30.6648
29.713
28.6507
27.4634
26.1474
24.7158
23.2002
21.6476
20.1116
18.6399
17.2662
16.0071
14.8632
13.8239
12.8728
11.9918
11.1643
10.3758
9.61527
8.87403
8.14587
7.42639
6.7125
6.00213
5.29391
4.58693
3.88062
3.17464
2.46879
1.76299
1.05727
0.351875
35.5003
35.1778
34.7419
34.2143
33.6122
32.9452
32.2156
31.4192
30.5461
29.5829
28.5156
27.3343
26.0387
24.642
23.1724
21.6697
20.1792
18.742
17.3884
16.1351
14.9854
13.9328
12.9646
12.0658
11.2217
10.419
9.64679
8.89647
8.16148
7.43699
6.71954
6.00669
5.29677
4.58867
3.88164
3.1752
2.46909
1.76314
1.05734
0.351898
35.3145
35.034
34.6293
34.1224
33.5316
32.8678
32.1351
31.3309
30.448
29.4762
28.4053
27.2293
25.9504
24.5817
23.1487
21.6859
20.232
18.8229
17.4863
16.2385
15.085
14.0221
13.0404
12.1272
11.2696
10.4551
9.67323
8.91533
8.1746
7.4459
6.72544
6.0105
5.29916
4.59011
3.88247
3.17566
2.46933
1.76327
1.05744
0.351959
35.1509
34.9125
34.5375
34.0499
33.4701
32.8106
32.0768
31.268
30.3787
29.4011
28.3279
27.1556
25.8881
24.5388
23.131
21.6957
20.2672
18.878
17.5536
16.3102
15.1545
14.0848
13.0938
12.1707
11.3035
10.4807
9.692
8.92869
8.18387
7.45217
6.72956
6.01313
5.30078
4.59107
3.88301
3.17595
2.46948
1.76336
1.05753
0.352056
35.0305
34.8286
34.4776
34.0052
33.4341
32.7786
32.0452
31.2344
30.3418
29.3611
28.2865
27.1161
25.8545
24.5153
23.1209
21.7002
20.2853
18.9068
17.589
16.348
15.1912
14.118
13.122
12.1935
11.3212
10.494
9.7016
8.93544
8.18846
7.4552
6.73149
6.01431
5.30146
4.59143
3.88318
3.17601
2.46949
1.76338
1.05759
0.352166
34.975
34.7985
34.4614
33.9967
33.4297
32.7762
32.0437
31.2329
30.3399
29.3585
28.2833
27.1126
25.8514
24.5131
23.1201
21.701
20.2877
18.9102
17.5927
16.3516
15.1941
14.1201
13.1233
12.194
11.3212
10.4936
9.70096
8.93471
8.18773
7.45452
6.7309
6.01381
5.30106
4.59111
3.88293
3.17582
2.46935
1.76329
1.05756
0.35222
35.03
34.8281
34.4771
34.0047
33.4335
32.7779
32.0446
31.2337
30.3411
29.3604
28.2858
27.1153
25.8538
24.5147
23.1202
21.6995
20.2846
18.906
17.5882
16.3472
15.1903
14.1171
13.1212
12.1928
11.3206
10.4934
9.7011
8.93502
8.18812
7.45492
6.73128
6.01415
5.30135
4.59135
3.88312
3.17598
2.46948
1.76338
1.0576
0.352176
35.0732
34.833
34.463
33.9818
33.4062
32.7477
32.0118
31.1985
30.3038
29.322
28.248
27.0804
25.8246
24.4937
23.1095
21.6999
20.2958
18.9264
17.6154
16.3785
15.223
14.1489
13.1504
12.2185
11.3423
10.5113
9.71539
8.94617
8.19664
7.46131
6.73598
6.01756
5.30378
4.59307
3.88432
3.17681
2.47006
1.7638
1.05788
0.352257
35.1892
34.9033
34.5045
34.0059
33.4201
32.7561
32.0177
31.204
30.3101
29.3295
28.2565
27.0892
25.8321
24.4984
23.1103
21.6965
20.2887
18.917
17.6051
16.3687
15.2148
14.1427
13.1464
12.2164
11.3418
10.5117
9.7165
8.9476
8.19816
7.46277
6.7373
6.01869
5.30472
4.59383
3.88493
3.17728
2.47041
1.76404
1.05801
0.352237
35.3558
35.0182
34.5853
34.0647
33.4659
32.7955
32.0557
31.2437
30.3533
29.3761
28.3046
27.1348
25.8702
24.5239
23.1195
21.6879
20.264
18.88
17.5611
16.3227
15.171
14.104
13.1141
12.1907
11.3223
10.4975
9.70654
8.94088
8.19382
7.4601
6.73577
6.0179
5.30439
4.59377
3.885
3.17742
2.47056
1.76416
1.05807
0.352218
35.5485
35.1591
34.6907
34.1469
33.5345
32.8583
32.1185
31.3108
30.4265
29.455
28.3854
27.2111
25.9336
24.5662
23.1344
21.6734
20.2227
18.8185
17.4876
16.2458
15.0974
14.0383
13.0587
12.1461
11.2877
10.4717
9.68786
8.92777
8.18488
7.4542
6.732
6.01558
5.30304
4.59304
3.88466
3.17729
2.47055
1.76419
1.0581
0.352228
35.7454
35.3085
34.8067
34.2408
33.6161
32.9354
32.1976
31.3962
30.5206
29.5566
28.4898
27.3098
26.0157
24.6207
23.1532
21.6536
20.1681
18.7378
17.392
16.1461
15.0024
13.9537
12.9873
12.0886
11.2431
10.4382
9.66346
8.91048
8.17295
7.44618
6.72676
6.01228
5.30103
4.59187
3.88403
3.17699
2.47043
1.76416
1.05812
0.352269
35.9276
35.4503
34.9197
34.3348
33.6997
33.0163
32.2819
31.4887
30.6232
29.6682
28.6051
27.4194
26.1071
24.6813
23.1735
21.6306
20.1062
18.6472
17.2855
16.0358
14.898
13.8612
12.9097
12.0262
11.1948
10.402
9.63701
8.89169
8.15994
7.43739
6.72097
6.00857
5.29874
4.59051
3.88327
3.1766
2.47025
1.76411
1.05813
0.352333
36.0791
35.5704
35.017
34.4173
33.7746
33.0899
32.3598
31.5748
30.7196
29.7738
28.715
27.5245
26.1954
24.7399
23.193
21.6076
20.0456
18.5593
17.183
15.9307
14.7991
13.7742
12.837
11.968
11.1498
10.3683
9.61248
8.87427
8.14785
7.42921
6.71557
6.0051
5.29658
4.58922
3.88253
3.17621
2.47008
1.76406
1.05815
0.352402
36.1875
35.6573
35.0884
34.4785
33.8308
33.1459
32.4196
31.6415
30.7947
29.8566
28.8018
27.6082
26.266
24.7871
23.2085
21.5889
19.9966
18.4889
17.1016
15.8477
14.7217
13.7064
12.7806
11.923
11.1152
10.3424
9.59364
8.86089
8.13859
7.42293
6.71142
6.00242
5.29491
4.58821
3.88195
3.1759
2.46993
1.76402
1.05817
0.352461
36.2439
35.7028
35.126
34.5111
33.861
33.1761
32.452
31.6779
30.8359
29.9023
28.8499
27.6547
26.3055
24.8136
23.2172
21.5783
19.969
18.4495
17.0564
15.8019
14.6791
13.6693
12.7499
11.8985
11.0963
10.3284
9.58345
8.85367
8.13358
7.41954
6.70918
6.00098
5.294
4.58767
3.88164
3.17574
2.46986
1.76399
1.05818
0.352494
36.244
35.7029
35.1261
34.5112
33.861
33.1762
32.4521
31.6779
30.836
29.9023
28.8499
27.6548
26.3056
24.8136
23.2173
21.5783
19.9691
18.4496
17.0565
15.802
14.6792
13.6694
12.75
11.8986
11.0964
10.3284
9.5835
8.85372
8.13362
7.41957
6.70921
6.001
5.29402
4.58768
3.88165
3.17574
2.46986
1.764
1.05818
0.352493
36.1876
35.6574
35.0885
34.4787
33.831
33.146
32.4197
31.6417
30.7949
29.8568
28.802
27.6083
26.2661
24.7871
23.2086
21.589
19.9968
18.4891
17.1019
15.848
14.722
13.7068
12.7809
11.9233
11.1154
10.3426
9.59381
8.86104
8.1387
7.42303
6.7115
6.00249
5.29495
4.58825
3.88198
3.17592
2.46995
1.76403
1.05818
0.352459
36.0794
35.5707
35.0173
34.4176
33.7748
33.0902
32.3601
31.5751
30.7199
29.7741
28.7153
27.5248
26.1956
24.7401
23.1931
21.6079
20.0459
18.5597
17.1835
15.9312
14.7996
13.7747
12.8375
11.9684
11.1502
10.3686
9.61275
8.8745
8.14805
7.42936
6.71569
6.00519
5.29665
4.58927
3.88257
3.17624
2.4701
1.76407
1.05816
0.352399
35.9279
35.4507
34.92
34.3352
33.7001
33.0167
32.2824
31.4891
30.6236
29.6686
28.6055
27.4197
26.1074
24.6816
23.1738
21.6309
20.1066
18.6477
17.286
16.0364
14.8986
13.8619
12.9103
12.0267
11.1952
10.4024
9.63737
8.89199
8.16019
7.43759
6.72114
6.0087
5.29884
4.59059
3.88332
3.17663
2.47028
1.76413
1.05815
0.352328
35.7459
35.309
34.8071
34.2413
33.6165
32.9359
32.1981
31.3968
30.5212
29.5572
28.4903
27.3103
26.0162
24.6211
23.1536
21.654
20.1686
18.7384
17.3926
16.1468
15.0031
13.9544
12.988
12.0892
11.2437
10.4387
9.66389
8.91084
8.17325
7.44642
6.72696
6.01242
5.30114
4.59196
3.88409
3.17703
2.47046
1.76418
1.05813
0.352264
35.549
35.1596
34.6912
34.1473
33.535
32.8589
32.1191
31.3114
30.4272
29.4556
28.386
27.2117
25.9342
24.5667
23.1349
21.6739
20.2233
18.8191
17.4883
16.2465
15.0982
14.0391
13.0594
12.1468
11.2883
10.4723
9.68833
8.92816
8.18521
7.45446
6.73221
6.01575
5.30317
4.59313
3.88472
3.17734
2.47058
1.76421
1.05811
0.352221
35.3563
35.0187
34.5858
34.0652
33.4664
32.7961
32.0563
31.2443
30.3539
29.3768
28.3053
27.1354
25.8708
24.5245
23.12
21.6885
20.2646
18.8807
17.5618
16.3235
15.1718
14.1048
13.1149
12.1914
11.3229
10.4981
9.70703
8.9413
8.19416
7.46038
6.73598
6.01806
5.30452
4.59386
3.88507
3.17746
2.47058
1.76417
1.05808
0.352211
35.1898
34.9038
34.5051
34.0064
33.4206
32.7567
32.0184
31.2046
30.3108
29.3302
28.2572
27.0899
25.8327
24.4991
23.111
21.6971
20.2894
18.9177
17.6059
16.3695
15.2156
14.1436
13.1472
12.2171
11.3424
10.5123
9.71699
8.94801
8.1985
7.46305
6.73752
6.01886
5.30485
4.59392
3.88499
3.17732
2.47043
1.76405
1.05801
0.352229
35.0737
34.8336
34.4636
33.9824
33.4068
32.7483
32.0125
31.1992
30.3045
29.3227
28.2487
27.0812
25.8253
24.4944
23.1101
21.7005
20.2965
18.9272
17.6162
16.3793
15.2238
14.1497
13.1512
12.2192
11.343
10.5118
9.71587
8.94657
8.19697
7.46157
6.73619
6.01771
5.3039
4.59315
3.88438
3.17684
2.47008
1.7638
1.05788
0.352248
35.0305
34.8286
34.4776
34.0052
33.4341
32.7785
32.0452
31.2343
30.3418
29.3611
28.2865
27.1161
25.8545
24.5153
23.1209
21.7001
20.2853
18.9068
17.589
16.348
15.1912
14.1179
13.122
12.1935
11.3212
10.4939
9.70156
8.9354
8.18843
7.45517
6.73147
6.01429
5.30145
4.59142
3.88317
3.176
2.46949
1.76338
1.05759
0.352167
35.1503
34.9119
34.5369
34.0494
33.4695
32.8099
32.0761
31.2673
30.3779
29.4003
28.3271
27.1549
25.8874
24.5381
23.1304
21.695
20.2665
18.8773
17.5528
16.3093
15.1536
14.084
13.093
12.17
11.3029
10.4801
9.69149
8.92827
8.18352
7.45189
6.72934
6.01296
5.30066
4.59098
3.88295
3.17591
2.46946
1.76336
1.05753
0.352068
35.1892
34.9033
34.5045
34.0059
33.4201
32.7561
32.0177
31.2039
30.31
29.3295
28.2565
27.0891
25.832
24.4984
23.1103
21.6965
20.2887
18.917
17.6051
16.3687
15.2148
14.1428
13.1465
12.2164
11.3418
10.5118
9.71651
8.94761
8.19817
7.46277
6.7373
6.01869
5.30473
4.59383
3.88493
3.17728
2.47041
1.76404
1.05801
0.352237
35.3008
34.9643
34.5328
34.0142
33.4164
32.7452
32.0025
31.1864
30.2916
29.3113
28.2396
27.0743
25.8196
24.4888
23.1037
21.6932
20.2893
18.9215
17.6135
16.3805
15.2291
14.1584
13.1623
12.2316
11.3556
10.5239
9.72686
8.95615
8.20506
7.46821
6.74152
6.02191
5.30714
4.59562
3.88624
3.17823
2.4711
1.76452
1.05829
0.352268
35.4674
35.0745
34.6051
34.0618
33.4491
32.7698
32.024
31.2082
30.3157
29.3384
28.2685
27.1022
25.8427
24.503
23.1062
21.6832
20.2684
18.8935
17.5825
16.3503
15.2024
14.1366
13.1458
12.22
11.3481
10.5195
9.72464
8.95543
8.20526
7.46893
6.74246
6.0229
5.30808
4.59645
3.88694
3.17881
2.47155
1.76484
1.05848
0.3523
35.6646
35.2143
34.7055
34.1364
33.5082
32.8215
32.0744
31.2615
30.3745
29.4025
28.3352
27.1656
25.895
24.5362
23.1145
21.6652
20.2274
18.8362
17.5171
16.2844
15.1416
14.0843
13.1033
12.187
11.3235
10.5019
9.71252
8.94742
8.2002
7.46591
6.74081
6.02211
5.30782
4.59649
3.88713
3.17905
2.47179
1.76505
1.05863
0.352366
35.8686
35.3649
34.8189
34.2253
33.5829
32.8902
32.1438
31.3365
30.4577
29.4936
28.4299
27.2558
25.9695
24.5836
23.1267
21.64
20.1695
18.7555
17.4252
16.1919
15.0562
14.0105
13.0427
12.1393
11.2874
10.4755
9.69377
8.93451
8.19158
7.46036
6.73737
6.0201
5.30673
4.59598
3.88696
3.17907
2.47189
1.76518
1.05875
0.352469
36.0588
35.509
34.9307
34.3159
33.6615
32.9649
32.221
31.4213
30.5527
29.5983
28.5398
27.3612
26.0572
24.6398
23.141
21.6097
20.1008
18.6607
17.3183
16.0852
14.9584
13.9264
12.9738
12.0852
11.2463
10.4452
9.6721
8.91942
8.18136
7.45363
6.73309
6.01748
5.30521
4.59516
3.88657
3.17893
2.4719
1.76525
1.05885
0.352595
36.2177
35.6317
35.0278
34.3963
33.733
33.0341
32.2938
31.5021
30.6443
29.7004
28.648
27.4664
26.1456
24.697
23.1556
21.5786
20.0309
18.5654
17.2123
15.9807
14.8637
13.8455
12.908
12.0336
11.2072
10.4164
9.65143
8.90496
8.17151
7.44709
6.72888
6.01486
5.30364
4.59428
3.88613
3.17875
2.47186
1.76529
1.05894
0.35272
36.3316
35.7207
35.0991
34.4563
33.7871
33.0873
32.3504
31.5656
30.7168
29.7821
28.7356
27.5525
26.2192
24.7452
23.168
21.5523
19.9724
18.4867
17.126
15.8968
14.7883
13.7817
12.8563
11.9933
11.1767
10.3939
9.63533
8.89369
8.16381
7.44197
6.72556
6.01278
5.30239
4.59357
3.88575
3.17858
2.47181
1.76531
1.059
0.352821
36.391
35.7674
35.1369
34.4882
33.8161
33.1161
32.3813
31.6005
30.7569
29.8275
28.7847
27.6014
26.2615
24.7733
23.1753
21.5371
19.9385
18.4418
17.0773
15.8499
14.7466
13.7465
12.828
11.9712
11.16
10.3817
9.62656
8.88756
8.15962
7.43918
6.72375
6.01164
5.3017
4.59318
3.88555
3.17848
2.47178
1.76532
1.05904
0.352877
36.391
35.7675
35.1369
34.4883
33.8162
33.1162
32.3813
31.6005
30.7569
29.8275
28.7847
27.6014
26.2615
24.7733
23.1753
21.5371
19.9385
18.4419
17.0775
15.85
14.7467
13.7466
12.8281
11.9713
11.1601
10.3818
9.62662
8.88761
8.15966
7.43921
6.72377
6.01166
5.30172
4.59319
3.88555
3.17849
2.47178
1.76532
1.05904
0.352876
36.3318
35.7208
35.0993
34.4564
33.7872
33.0874
32.3506
31.5658
30.717
29.7822
28.7357
27.5526
26.2193
24.7452
23.168
21.5524
19.9726
18.487
17.1263
15.8971
14.7886
13.782
12.8566
11.9935
11.1769
10.3941
9.63549
8.89383
8.16392
7.44206
6.72563
6.01283
5.30244
4.5936
3.88578
3.17859
2.47182
1.76532
1.05901
0.35282
36.218
35.632
35.0281
34.3966
33.7332
33.0344
32.2941
31.5025
30.6446
29.7007
28.6483
27.4666
26.1458
24.6971
23.1557
21.5788
20.0312
18.5658
17.2128
15.9812
14.8642
13.846
12.9084
12.034
11.2076
10.4167
9.65169
8.90518
8.17169
7.44724
6.72899
6.01495
5.30372
4.59434
3.88617
3.17877
2.47187
1.7653
1.05895
0.352718
36.0592
35.5094
34.9311
34.3163
33.6619
32.9653
32.2214
31.4217
30.5531
29.5988
28.5402
27.3616
26.0575
24.64
23.1413
21.61
20.1012
18.6612
17.3189
16.0858
14.959
13.927
12.9744
12.0857
11.2468
10.4456
9.67245
8.91971
8.1816
7.45383
6.73325
6.0176
5.3053
4.59523
3.88662
3.17897
2.47192
1.76526
1.05886
0.352592
35.8691
35.3653
34.8193
34.2258
33.5833
32.8907
32.1443
31.3371
30.4583
29.4942
28.4305
27.2563
25.9699
24.584
23.1271
21.6404
20.17
18.756
17.4258
16.1925
15.0569
14.0111
13.0433
12.1399
11.288
10.4759
9.69418
8.93485
8.19187
7.46059
6.73756
6.02025
5.30684
4.59606
3.88702
3.17911
2.47191
1.76519
1.05876
0.352466
35.6651
35.2148
34.706
34.1369
33.5087
32.822
32.0749
31.2621
30.3751
29.4032
28.3359
27.1662
25.8955
24.5367
23.115
21.6658
20.228
18.8368
17.5178
16.2852
15.1424
14.0851
13.104
12.1876
11.3241
10.5024
9.71298
8.9478
8.20051
7.46617
6.74101
6.02227
5.30794
4.59658
3.8872
3.1791
2.47182
1.76506
1.05863
0.352362
35.468
35.075
34.6056
34.0624
33.4496
32.7704
32.0247
31.2088
30.3164
29.3391
28.2692
27.1029
25.8434
24.5036
23.1067
21.6838
20.2691
18.8942
17.5833
16.3511
15.2031
14.1374
13.1466
12.2207
11.3487
10.52
9.72511
8.95584
8.20559
7.4692
6.74267
6.02306
5.3082
4.59654
3.887
3.17885
2.47157
1.76485
1.05849
0.352295
35.3013
34.9649
34.5334
34.0147
33.4169
32.7458
32.0032
31.1871
30.2923
29.312
28.2404
27.075
25.8203
24.4894
23.1044
21.6939
20.29
18.9223
17.6143
16.3813
15.2299
14.1592
13.1631
12.2323
11.3563
10.5245
9.72734
8.95656
8.20539
7.46848
6.74173
6.02207
5.30726
4.59571
3.8863
3.17827
2.47112
1.76452
1.05829
0.352262
35.1898
34.9038
34.5051
34.0064
33.4206
32.7567
32.0184
31.2046
30.3108
29.3302
28.2572
27.0899
25.8327
24.4991
23.111
21.6972
20.2895
18.9178
17.6059
16.3696
15.2156
14.1436
13.1472
12.2171
11.3424
10.5123
9.71698
8.948
8.19848
7.46303
6.7375
6.01884
5.30483
4.59391
3.88497
3.1773
2.47042
1.76404
1.058
0.352228
35.1509
34.9125
34.5374
34.0499
33.47
32.8105
32.0768
31.268
30.3787
29.4011
28.3279
27.1556
25.8881
24.5388
23.131
21.6957
20.2672
18.878
17.5536
16.3102
15.1544
14.0848
13.0938
12.1706
11.3034
10.4807
9.69193
8.92863
8.18382
7.45212
6.72952
6.01309
5.30075
4.59104
3.88298
3.17592
2.46946
1.76335
1.05752
0.352056
35.3139
35.0335
34.6288
34.1219
33.531
32.8672
32.1344
31.3302
30.4473
29.4754
28.4045
27.2285
25.9496
24.581
23.1481
21.6852
20.2313
18.8222
17.4855
16.2377
15.0842
14.0213
13.0396
12.1265
11.2689
10.4545
9.67274
8.91491
8.17426
7.44562
6.72522
6.01033
5.29903
4.59002
3.88241
3.17562
2.46931
1.76327
1.05744
0.351973
35.3558
35.0182
34.5853
34.0646
33.4659
32.7955
32.0556
31.2436
30.3532
29.3761
28.3045
27.1347
25.8701
24.5238
23.1194
21.6878
20.264
18.88
17.5611
16.3228
15.1711
14.1041
13.1142
12.1908
11.3223
10.4976
9.70656
8.9409
8.19383
7.46011
6.73577
6.0179
5.30439
4.59377
3.885
3.17742
2.47056
1.76416
1.05807
0.352219
35.4674
35.0745
34.6051
34.0618
33.4491
32.7698
32.024
31.2082
30.3157
29.3383
28.2685
27.1022
25.8427
24.5029
23.1061
21.6832
20.2684
18.8935
17.5825
16.3503
15.2024
14.1366
13.1459
12.22
11.3481
10.5195
9.72465
8.95544
8.20527
7.46894
6.74247
6.0229
5.30808
4.59645
3.88694
3.17881
2.47155
1.76484
1.05848
0.3523
35.6357