# vtk DataFile Version 2.0
I need something to put here
ASCII

DATASET STRUCTURED_GRID
DIMENSIONS 41 21 21
POINTS 18081 float
0.000000 0.000000 0.000000
0.100000 0.000000 0.000000
0.200000 0.000000 0.000000
0.300000 0.000000 0.000000
0.400000 0.000000 0.000000
0.500000 0.000000 0.000000
0.600000 0.000000 0.000000
0.700000 0.000000 0.000000
0.800000 0.000000 0.000000
0.900000 0.000000 0.000000
1.000000 0.000000 0.000000
1.100000 0.000000 0.000000
1.200000 0.000000 0.000000
1.300000 0.000000 0.000000
1.400000 0.000000 0.000000
1.500000 0.000000 0.000000
1.600000 0.000000 0.000000
1.700000 0.000000 0.000000
1.800000 0.000000 0.000000
1.900000 0.000000 0.000000
2.000000 0.000000 0.000000
2.100000 0.000000 0.000000
2.200000 0.000000 0.000000
2.300000 0.000000 0.000000
2.400000 0.000000 0.000000
2.500000 0.000000 0.000000
2.600000 0.000000 0.000000
2.700000 0.000000 0.000000
2.800000 0.000000 0.000000
2.900000 0.000000 0.000000
3.000000 0.000000 0.000000
3.100000 0.000000 0.000000
3.200000 0.000000 0.000000
3.300000 0.000000 0.000000
3.400000 0.000000 0.000000
3.500000 0.000000 0.000000
3.600000 0.000000 0.000000
3.700000 0.000000 0.000000
3.800000 0.000000 0.000000
3.900000 0.000000 0.000000
4.000000 0.000000 0.000000
0.000000 0.100000 0.000000
0.100000 0.100000 0.000000
0.200000 0.100000 0.000000
0.300000 0.100000 0.000000
0.400000 0.100000 0.000000
0.500000 0.100000 0.000000
0.600000 0.100000 0.000000
0.700000 0.100000 0.000000
0.800000 0.100000 0.000000
0.900000 0.100000 0.000000
1.000000 0.100000 0.000000
1.100000 0.100000 0.000000
1.200000 0.100000 0.000000
1.300000 0.100000 0.000000
1.400000 0.100000 0.000000
1.500000 0.100000 0.000000
1.600000 0.100000 0.000000
1.700000 0.100000 0.000000
1.800000 0.100000 0.000000
1.900000 0.100000 0.000000
2.000000 0.100000 0.000000
2.100000 0.100000 0.000000
2.200000 0.100000 0.000000
2.300000 0.100000 0.000000
2.400000 0.100000 0.000000
2.500000 0.100000 0.000000
2.600000 0.100000 0.000000
2.700000 0.100000 0.000000
2.800000 0.100000 0.000000
2.900000 0.100000 0.000000
3.000000 0.100000 0.000000
3.100000 0.100000 0.000000
3.200000 0.100000 0.000000
3.300000 0.100000 0.000000
3.400000 0.100000 0.000000
3.500000 0.100000 0.000000
3.600000 0.100000 0.000000
3.700000 0.100000 0.000000
3.800000 0.100000 0.000000
3.900000 0.100000 0.000000
4.000000 0.100000 0.000000
0.000000 0.200000 0.000000
0.100000 0.200000 0.000000
0.200000 0.200000 0.000000
0.300000 0.200000 0.000000
0.400000 0.200000 0.000000
0.500000 0.200000 0.000000
0.600000 0.200000 0.000000
0.700000 0.200000 0.000000
0.800000 0.200000 0.000000
0.900000 0.200000 0.000000
1.000000 0.200000 0.000000
1.100000 0.200000 0.000000
1.200000 0.200000 0.000000
1.300000 0.200000 0.000000
1.400000 0.200000 0.000000
1.500000 0.200000 0.000000
1.600000 0.200000 0.000000
1.700000 0.200000 0.000000
1.800000 0.200000 0.000000
1.900000 0.200000 0.000000
2.000000 0.200000 0.000000
2.100000 0.200000 0.000000
2.200000 0.200000 0.000000
2.300000 0.200000 0.000000
2.400000 0.200000 0.000000
2.500000 0.200000 0.000000
2.600000 0.200000 0.000000
2.700000 0.200000 0.000000
2.800000 0.200000 0.000000
2.900000 0.200000 0.000000
3.000000 0.200000 0.000000
3.100000 0.200000 0.000000
3.200000 0.200000 0.000000
3.300000 0.200000 0.000000
3.400000 0.200000 0.000000
3.500000 0.200000 0.000000
3.600000 0.200000 0.000000
3.700000 0.200000 0.000000
3.800000 0.200000 0.000000
3.900000 0.200000 0.000000
4.000000 0.200000 0.000000
0.000000 0.300000 0.000000
0.100000 0.300000 0.000000
0.200000 0.300000 0.000000
0.300000 0.300000 0.000000
0.400000 0.300000 0.000000
0.500000 0.300000 0.000000
0.600000 0.300000 0.000000
0.700000 0.300000 0.000000
0.800000 0.300000 0.000000
0.900000 0.300000 0.000000
1.000000 0.300000 0.000000
1.100000 0.300000 0.000000
1.200000 0.300000 0.000000
1.300000 0.300000 0.000000
1.400000 0.300000 0.000000
1.500000 0.300000 0.000000
1.600000 0.300000 0.000000
1.700000 0.300000 0.000000
1.800000 0.300000 0.000000
1.900000 0.300000 0.000000
2.000000 0.300000 0.000000
2.100000 0.300000 0.000000
2.200000 0.300000 0.000000
2.300000 0.300000 0.000000
2.400000 0.300000 0.000000
2.500000 0.300000 0.000000
2.600000 0.300000 0.000000
2.700000 0.300000 0.000000
2.800000 0.300000 0.000000
2.900000 0.300000 0.000000
3.000000 0.300000 0.000000
3.100000 0.300000 0.000000
3.200000 0.300000 0.000000
3.300000 0.300000 0.000000
3.400000 0.300000 0.000000
3.500000 0.300000 0.000000
3.600000 0.300000 0.000000
3.700000 0.300000 0.000000
3.800000 0.300000 0.000000
3.900000 0.300000 0.000000
4.000000 0.300000 0.000000
0.000000 0.400000 0.000000
0.100000 0.400000 0.000000
0.200000 0.400000 0.000000
0.300000 0.400000 0.000000
0.400000 0.400000 0.000000
0.500000 0.400000 0.000000
0.600000 0.400000 0.000000
0.700000 0.400000 0.000000
0.800000 0.400000 0.000000
0.900000 0.400000 0.000000
1.000000 0.400000 0.000000
1.100000 0.400000 0.000000
1.200000 0.400000 0.000000
1.300000 0.400000 0.000000
1.400000 0.400000 0.000000
1.500000 0.400000 0.000000
1.600000 0.400000 0.000000
1.700000 0.400000 0.000000
1.800000 0.400000 0.000000
1.900000 0.400000 0.000000
2.000000 0.400000 0.000000
2.100000 0.400000 0.000000
2.200000 0.400000 0.000000
2.300000 0.400000 0.000000
2.400000 0.400000 0.000000
2.500000 0.400000 0.000000
2.600000 0.400000 0.000000
2.700000 0.400000 0.000000
2.800000 0.400000 0.000000
2.900000 0.400000 0.000000
3.000000 0.400000 0.000000
3.100000 0.400000 0.000000
3.200000 0.400000 0.000000
3.300000 0.400000 0.000000
3.400000 0.400000 0.000000
3.500000 0.400000 0.000000
3.600000 0.400000 0.000000
3.700000 0.400000 0.000000
3.800000 0.400000 0.000000
3.900000 0.400000 0.000000
4.000000 0.400000 0.000000
0.000000 0.500000 0.000000
0.100000 0.500000 0.000000
0.200000 0.500000 0.000000
0.300000 0.500000 0.000000
0.400000 0.500000 0.000000
0.500000 0.500000 0.000000
0.600000 0.500000 0.000000
0.700000 0.500000 0.000000
0.800000 0.500000 0.000000
0.900000 0.500000 0.000000
1.000000 0.500000 0.000000
1.100000 0.500000 0.000000
1.200000 0.500000 0.000000
1.300000 0.500000 0.000000
1.400000 0.500000 0.000000
1.500000 0.500000 0.000000
1.600000 0.500000 0.000000
1.700000 0.500000 0.000000
1.800000 0.500000 0.000000
1.900000 0.500000 0.000000
2.000000 0.500000 0.000000
2.100000 0.500000 0.000000
2.200000 0.500000 0.000000
2.300000 0.500000 0.000000
2.400000 0.500000 0.000000
2.500000 0.500000 0.000000
2.600000 0.500000 0.000000
2.700000 0.500000 0.000000
2.800000 0.500000 0.000000
2.900000 0.500000 0.000000
3.000000 0.500000 0.000000
3.100000 0.500000 0.000000
3.200000 0.500000 0.000000
3.300000 0.500000 0.000000
3.400000 0.500000 0.000000
3.500000 0.500000 0.000000
3.600000 0.500000 0.000000
3.700000 0.500000 0.000000
3.800000 0.500000 0.000000
3.900000 0.500000 0.000000
4.000000 0.500000 0.000000
0.000000 0.600000 0.000000
0.100000 0.600000 0.000000
0.200000 0.600000 0.000000
0.300000 0.600000 0.000000
0.400000 0.600000 0.000000
0.500000 0.600000 0.000000
0.600000 0.600000 0.000000
0.700000 0.600000 0.000000
0.800000 0.600000 0.000000
0.900000 0.600000 0.000000
1.000000 0.600000 0.000000
1.100000 0.600000 0.000000
1.200000 0.600000 0.000000
1.300000 0.600000 0.000000
1.400000 0.600000 0.000000
1.500000 0.600000 0.000000
1.600000 0.600000 0.000000
1.700000 0.600000 0.000000
1.800000 0.600000 0.000000
1.900000 0.600000 0.000000
2.000000 0.600000 0.000000
2.100000 0.600000 0.000000
2.200000 0.600000 0.000000
2.300000 0.600000 0.000000
2.400000 0.600000 0.000000
2.500000 0.600000 0.000000
2.600000 0.600000 0.000000
2.700000 0.600000 0.000000
2.800000 0.600000 0.000000
2.900000 0.600000 0.000000
3.000000 0.600000 0.000000
3.100000 0.600000 0.000000
3.200000 0.600000 0.000000
3.300000 0.600000 0.000000
3.400000 0.600000 0.000000
3.500000 0.600000 0.000000
3.600000 0.600000 0.000000
3.700000 0.600000 0.000000
3.800000 0.600000 0.000000
3.900000 0.600000 0.000000
4.000000 0.600000 0.000000
0.000000 0.700000 0.000000
0.100000 0.700000 0.000000
0.200000 0.700000 0.000000
0.300000 0.700000 0.000000
0.400000 0.700000 0.000000
0.500000 0.700000 0.000000
0.600000 0.700000 0.000000
0.700000 0.700000 0.000000
0.800000 0.700000 0.000000
0.900000 0.700000 0.000000
1.000000 0.700000 0.000000
1.100000 0.700000 0.000000
1.200000 0.700000 0.000000
1.300000 0.700000 0.000000
1.400000 0.700000 0.000000
1.500000 0.700000 0.000000
1.600000 0.700000 0.000000
1.700000 0.700000 0.000000
1.800000 0.700000 0.000000
1.900000 0.700000 0.000000
2.000000 0.700000 0.000000
2.100000 0.700000 0.000000
2.200000 0.700000 0.000000
2.300000 0.700000 0.000000
2.400000 0.700000 0.000000
2.500000 0.700000 0.000000
2.600000 0.700000 0.000000
2.700000 0.700000 0.000000
2.800000 0.700000 0.000000
2.900000 0.700000 0.000000
3.000000 0.700000 0.000000
3.100000 0.700000 0.000000
3.200000 0.700000 0.000000
3.300000 0.700000 0.000000
3.400000 0.700000 0.000000
3.500000 0.700000 0.000000
3.600000 0.700000 0.000000
3.700000 0.700000 0.000000
3.800000 0.700000 0.000000
3.900000 0.700000 0.000000
4.000000 0.700000 0.000000
0.000000 0.800000 0.000000
0.100000 0.800000 0.000000
0.200000 0.800000 0.000000
0.300000 0.800000 0.000000
0.400000 0.800000 0.000000
0.500000 0.800000 0.000000
0.600000 0.800000 0.000000
0.700000 0.800000 0.000000
0.800000 0.800000 0.000000
0.900000 0.800000 0.000000
1.000000 0.800000 0.000000
1.100000 0.800000 0.000000
1.200000 0.800000 0.000000
1.300000 0.800000 0.000000
1.400000 0.800000 0.000000
1.500000 0.800000 0.000000
1.600000 0.800000 0.000000
1.700000 0.800000 0.000000
1.800000 0.800000 0.000000
1.900000 0.800000 0.000000
2.000000 0.800000 0.000000
2.100000 0.800000 0.000000
2.200000 0.800000 0.000000
2.300000 0.800000 0.000000
2.400000 0.800000 0.000000
2.500000 0.800000 0.000000
2.600000 0.800000 0.000000
2.700000 0.800000 0.000000
2.800000 0.800000 0.000000
2.900000 0.800000 0.000000
3.000000 0.800000 0.000000
3.100000 0.800000 0.000000
3.200000 0.800000 0.000000
3.300000 0.800000 0.000000
3.400000 0.800000 0.000000
3.500000 0.800000 0.000000
3.600000 0.800000 0.000000
[...]
CELL_DATA 16000
SCALARS pressure float 1
LOOKUP_TABLE default
36.2014
36.0261
35.6885
35.2199
34.6437
33.9744
33.218
32.3737
31.4368
30.4011
29.2619
28.0198
26.6824
25.2664
23.7958
22.3006
20.8126
19.3619
17.9735
16.665
15.4457
14.3167
13.273
12.3053
11.4018
10.5506
9.74034
8.96121
8.20508
7.46551
6.73758
6.01764
5.30306
4.59198
3.88312
3.17564
2.46899
1.76288
1.0572
0.352029
36.2563
36.056
35.7048
35.2286
34.6483
33.977
33.2198
32.3756
31.4392
30.4041
29.2655
28.0233
26.6855
25.2683
23.7964
22.2996
20.8102
19.3585
17.9697
16.6613
15.4424
14.3142
13.2714
12.3045
11.4017
10.5509
9.74093
8.96194
8.20584
7.46623
6.73823
6.01819
5.30352
4.59234
3.88341
3.17586
2.46916
1.76299
1.05724
0.351963
36.3769
36.1408
35.7662
35.2754
34.6871
34.0125
33.2555
32.4138
31.4808
30.4484
29.3101
28.0647
26.7195
25.2913
23.8056
22.2943
20.7915
19.3289
17.9328
16.621
15.4025
14.2774
13.2395
12.2782
11.3809
10.5352
9.7294
8.95375
8.2002
7.46246
6.73579
6.01668
5.30261
4.59184
3.88315
3.17574
2.46911
1.76295
1.05715
0.351824
36.5425
36.2649
35.8614
35.3522
34.7539
34.0763
33.3214
32.4852
31.5588
30.5313
29.3934
28.1417
26.7823
25.333
23.8217
22.2832
20.7551
19.2723
17.8626
16.5448
15.327
14.2079
13.1791
12.2283
11.3414
10.5049
9.70701
8.93764
8.18892
7.45476
6.73067
6.01337
5.30054
4.59059
3.88243
3.17535
2.46889
1.76281
1.05702
0.351701
36.7323
36.413
35.979
35.4503
34.8422
34.1628
33.4127
32.5853
31.669
30.6489
29.5119
28.251
26.8712
25.3914
23.8429
22.2653
20.7011
19.1894
17.7609
16.4349
15.2188
14.1087
13.0934
12.1577
11.2856
10.4624
9.67552
8.91497
8.173
7.44386
6.72337
6.00861
5.29753
4.58874
3.88134
3.17473
2.46855
1.76261
1.05689
0.351619
36.9264
36.5692
36.1065
35.5594
34.9429
34.2637
33.5209
32.7055
31.8023
30.7922
29.6567
28.3849
26.9799
25.4622
23.8675
22.2412
20.6325
19.0856
17.6343
16.2992
15.0861
13.9879
12.9896
12.0727
11.2187
10.4116
9.63802
8.88802
8.1541
7.43091
6.71471
6.00295
5.29392
4.58652
3.88001
3.17397
2.46813
1.76239
1.05678
0.351582
37.1067
36.7176
36.2302
35.6676
35.0447
34.3677
33.634
32.8325
31.9445
30.946
29.8131
28.5301
27.0979
25.5388
23.8933
22.2136
20.5563
18.9713
17.496
16.152
14.9431
13.8586
12.8793
11.9829
11.1484
10.3583
9.59888
8.85997
8.13447
7.41747
6.70572
5.99707
5.29018
4.5842
3.87863
3.17318
2.46771
1.76218
1.05669
0.351581
37.2575
36.8436
36.337
35.7625
35.1355
34.4617
33.7374
32.9497
32.0768
31.0901
29.9606
28.6677
27.2102
25.6118
23.9176
22.1866
20.4828
18.8618
17.3644
16.0128
14.8088
13.738
12.777
11.9001
11.0839
10.3097
9.5632
8.83447
8.11666
7.40531
6.69759
5.99176
5.2868
4.58211
3.87738
3.17247
2.46733
1.762
1.05663
0.351602
37.3657
36.9351
36.4154
35.833
35.2037
34.533
33.8166
33.0401
32.1794
31.2027
30.0764
28.7764
27.2992
25.6698
23.9368
22.1648
20.424
18.7748
17.2605
15.9035
14.704
13.6444
12.698
11.8363
11.0344
10.2725
9.53602
8.81508
8.10314
7.39608
6.69143
5.98774
5.28424
4.58052
3.87644
3.17193
2.46704
1.76187
1.0566
0.351628
37.4223
36.9832
36.4569
35.8706
35.2403
34.5715
33.8595
33.0894
32.2356
31.2645
30.1403
28.8366
27.3488
25.7022
23.9476
22.1526
20.3912
18.7264
17.203
15.8433
14.6465
13.5932
12.6549
11.8017
11.0076
10.2524
9.52133
8.80462
8.09586
7.39112
6.68812
5.98558
5.28286
4.57967
3.87593
3.17164
2.46689
1.7618
1.05658
0.351644
37.4224
36.9833
36.457
35.8707
35.2404
34.5716
33.8597
33.0895
32.2358
31.2646
30.1405
28.8367
27.3488
25.7023
23.9477
22.1527
20.3913
18.7265
17.2031
15.8434
14.6465
13.5933
12.6549
11.8017
11.0076
10.2524
9.52135
8.80463
8.09586
7.39112
6.68812
5.98558
5.28286
4.57968
3.87593
3.17164
2.46689
1.7618
1.05658
0.351643
37.3661
36.9354
36.4157
35.8334
35.204
34.5333
33.8169
33.0405
32.1798
31.2031
30.0768
28.7767
27.2995
25.67
23.937
22.165
20.4242
18.775
17.2607
15.9037
14.7042
13.6446
12.6981
11.8364
11.0345
10.2725
9.53607
8.81512
8.10316
7.3961
6.69144
5.98775
5.28424
4.58053
3.87644
3.17193
2.46704
1.76187
1.0566
0.351624
37.258
36.8441
36.3375
35.7631
35.136
34.4622
33.738
32.9504
32.0775
31.0908
29.9613
28.6683
27.2107
25.6122
23.918
22.1869
20.4831
18.8621
17.3648
16.0131
14.8091
13.7383
12.7772
11.9002
11.084
10.3098
9.56327
8.83452
8.11669
7.40533
6.6976
5.99177
5.2868
4.58211
3.87738
3.17247
2.46733
1.762
1.05663
0.351596
37.1074
36.7183
36.2309
35.6683
35.0455
34.3685
33.6348
32.8334
31.9454
30.947
29.8141
28.531
27.0987
25.5395
23.8939
22.2141
20.5567
18.9717
17.4964
16.1523
14.9433
13.8589
12.8795
11.983
11.1486
10.3584
9.59894
8.86002
8.1345
7.4175
6.70573
5.99708
5.29019
4.58421
3.87863
3.17318
2.46771
1.76218
1.05669
0.351573
36.9272
36.57
36.1073
35.5603
34.9438
34.2647
33.5219
32.7066
31.8036
30.7935
29.658
28.3861
26.981
25.4631
23.8682
22.2418
20.633
19.086
17.6347
16.2995
15.0863
13.9881
12.9898
12.0728
11.2188
10.4116
9.63808
8.88807
8.15413
7.43093
6.71472
6.00296
5.29393
4.58652
3.88001
3.17397
2.46813
1.76239
1.05677
0.351572
36.7332
36.414
35.98
35.4513
34.8432
34.1639
33.4139
32.5866
31.6704
30.6504
29.5133
28.2524
26.8725
25.3925
23.8438
22.2659
20.7016
19.1898
17.7612
16.4351
15.2189
14.1088
13.0935
12.1578
11.2857
10.4624
9.67557
8.91501
8.17303
7.44388
6.72339
6.00862
5.29753
4.58874
3.88134
3.17473
2.46854
1.7626
1.05688
0.351608
36.5436
36.2659
35.8624
35.3533
34.7551
34.0775
33.3227
32.4866
31.5603
30.5329
29.395
28.1432
26.7838
25.3342
23.8227
22.284
20.7557
19.2727
17.8629
16.545
15.3271
14.2079
13.1792
12.2283
11.3414
10.505
9.70704
8.93766
8.18893
7.45477
6.73068
6.01337
5.30054
4.59059
3.88243
3.17534
2.46889
1.7628
1.05702
0.35169
36.378
36.1419
35.7673
35.2766
34.6883
34.0138
33.2569
32.4152
31.4824
30.45
29.3117
28.0663
26.721
25.2925
23.8067
22.2952
20.7921
19.3293
17.933
16.6212
15.4026
14.2775
13.2395
12.2782
11.3809
10.5352
9.72941
8.95376
8.2002
7.46247
6.73579
6.01668
5.30261
4.59184
3.88315
3.17574
2.4691
1.76294
1.05715
0.351815
36.2574
36.0571
35.7059
35.2297
34.6495
33.9783
33.2212
32.377
31.4408
30.4058
29.2671
28.025
26.687
25.2697
23.7975
22.3004
20.8108
19.3589
17.97
16.6614
15.4425
14.3142
13.2714
12.3045
11.4016
10.5509
9.74092
8.96194
8.20584
7.46623
6.73822
6.01819
5.30351
4.59234
3.8834
3.17585
2.46915
1.76298
1.05723
0.351956
36.2025
36.0271
35.6896
35.221
34.6449
33.9757
33.2193
32.3751
31.4384
30.4027
29.2636
28.0214
26.6839
25.2677
23.7969
22.3014
20.8132
19.3623
17.9738
16.6651
15.4457
14.3167
13.273
12.3052
11.4018
10.5506
9.74032
8.9612
8.20507
7.4655
6.73757
6.01764
5.30305
4.59197
3.88311
3.17563
2.46898
1.76288
1.05719
0.352025
36.2563
36.056
35.7048
35.2285
34.6483
33.977
33.2198
32.3755
31.4392
30.4041
29.2654
28.0233
26.6855
25.2683
23.7964
22.2996
20.8102
19.3585
17.9697
16.6613
15.4424
14.3143
13.2715
12.3045
11.4017
10.5509
9.74094
8.96194
8.20584
7.46624
6.73823
6.0182
5.30352
4.59234
3.88341
3.17586
2.46916
1.76299
1.05724
0.351963
36.2979
36.0597
35.6892
35.2035
34.6183
33.9436
33.1834
32.3366
31.3982
30.3623
29.2249
27.9865
26.6551
25.2469
23.7857
22.3003
20.822
19.38
17.9985
16.6947
15.4777
14.349
13.3039
12.3333
11.4264
10.5714
9.75745
8.97493
8.21583
7.47377
6.74381
6.02227
5.30644
4.59442
3.88487
3.17688
2.46987
1.7635
1.05759
0.352064
36.4133
36.13
35.731
35.2281
34.6328
33.9527
33.1903
32.3432
31.4057
30.3711
29.2343
27.9955
26.6623
25.251
23.7858
22.2965
20.8147
19.3703
17.9878
16.6843
15.4686
14.3419
13.299
12.3305
11.4253
10.5715
9.75841
8.97635
8.21743
7.47535
6.74527
6.02354
5.30751
4.59529
3.88556
3.17742
2.47028
1.76379
1.05774
0.352036
36.5813
36.2468
35.8141
35.2897
34.6821
33.9964
33.2332
32.3884
31.4545
30.4228
29.2861
28.043
26.7005
25.2754
23.7935
22.2867
20.7891
19.3322
17.9417
16.6352
15.4208
14.2987
13.2622
12.3008
11.4023
10.5546
9.74632
8.96807
8.21199
7.47194
6.74325
6.02244
5.307
4.59513
3.8856
3.17755
2.47044
1.76392
1.0578
0.352009
36.7775
36.3915
35.9237
35.3768
34.7566
34.0661
33.3042
32.4644
31.5369
30.5098
29.373
28.1225
26.7641
25.316
23.8064
22.2706
20.7465
19.2688
17.865
16.553
15.3405
14.2255
13.1993
12.2493
11.3619
10.524
9.72393
8.95217
8.20103
7.46462
6.73851
6.01949
5.30524
4.59415
3.8851
3.17734
2.47038
1.76392
1.05782
0.352015
36.9797
36.546
36.0452
35.4771
34.8456
34.1521
33.3934
32.5612
31.6425
30.6218
29.4851
28.225
26.8462
25.368
23.8223
22.2489
20.6907
19.1862
17.7653
16.4468
15.237
14.1314
13.1184
12.1831
11.3098
10.4844
9.6948
8.93132
8.1865
7.45475
6.732
6.01532
5.30266
4.59263
3.88425
3.1769
2.47019
1.76386
1.05783
0.352059
37.1679
36.6936
36.1643
35.578
34.9373
34.2425
33.4889
32.6658
31.7575
30.7446
29.6086
28.3385
26.9371
25.4256
23.8396
22.2242
20.628
19.0941
17.6548
16.3295
15.1233
14.0286
13.0305
12.1113
11.2535
10.4416
9.66326
8.90869
8.17067
7.44395
6.72481
6.01067
5.29975
4.59086
3.88324
3.17636
2.46993
1.76377
1.05783
0.352131
37.3254
36.8192
36.2674
35.6669
35.0197
34.325
33.577
32.7633
31.8655
30.8606
29.7261
28.447
27.0245
25.4811
23.8562
22.2
20.5673
19.0054
17.549
16.218
15.0158
13.9319
12.9483
12.0444
11.2011
10.4019
9.63402
8.88772
8.15599
7.43392
6.71812
6.00632
5.297
4.58919
3.88226
3.17583
2.46967
1.76368
1.05784
0.352211
37.4383
36.9104
36.3432
35.7332
35.0817
34.3878
33.6447
32.8387
31.9495
30.9515
29.8187
28.533
27.0941
25.5256
23.8695
22.1805
20.5187
18.9348
17.4653
16.1304
14.9318
13.8567
12.8845
11.9927
11.1607
10.3714
9.61157
8.87162
8.14473
7.42622
6.71298
6.00296
5.29488
4.58789
3.8815
3.17541
2.46946
1.7636
1.05785
0.352279
37.4973
36.9584
36.3834
35.7685
35.1151
34.4218
33.6815
32.8799
31.9956
31.0015
29.8698
28.5807
27.133
25.5505
23.877
22.1697
20.4915
18.8955
17.4189
16.0821
14.8857
13.8156
12.8497
11.9646
11.1388
10.3548
9.5994
8.8629
8.13863
7.42204
6.71019
6.00115
5.29372
4.58718
3.88108
3.17518
2.46935
1.76356
1.05785
0.352318
37.4974
36.9585
36.3835
35.7686
35.1152
34.4219
33.6816
32.88
31.9957
31.0016
29.8699
28.5808
27.1331
25.5506
23.8771
22.1698
20.4916
18.8956
17.419
16.0822
14.8858
13.8156
12.8498
11.9646
11.1388
10.3548
9.59941
8.86291
8.13863
7.42205
6.71019
6.00115
5.29373
4.58718
3.88108
3.17518
2.46935
1.76356
1.05785
0.352317
37.4387
36.9108
36.3435
35.7335
35.0821
34.3882
33.645
32.8391
31.9499
30.9519
29.819
28.5333
27.0944
25.5258
23.8697
22.1807
20.5189
18.935
17.4655
16.1306
14.932
13.8569
12.8846
11.9928
11.1608
10.3714
9.61161
8.87165
8.14475
7.42623
6.71299
6.00297
5.29488
4.58789
3.8815
3.17541
2.46946
1.7636
1.05785
0.352278
37.3259
36.8197
36.2679
35.6675
35.0202
34.3256
33.5776
32.7639
31.8661
30.8613
29.7268
28.4476
27.025
25.4815
23.8565
22.2003
20.5676
19.0057
17.5493
16.2183
15.0161
13.9321
12.9484
12.0445
11.2012
10.402
9.63407
8.88776
8.15602
7.43394
6.71813
6.00633
5.297
4.58919
3.88226
3.17583
2.46967
1.76368
1.05784
0.352209
37.1687
36.6943
36.165
35.5787
34.938
34.2433
33.4897
32.6667
31.7584
30.7455
29.6095
28.3393
26.9379
25.4263
23.8402
22.2246
20.6284
19.0945
17.6551
16.3298
15.1235
14.0288
13.0307
12.1114
11.2536
10.4417
9.66331
8.90873
8.1707
7.44397
6.72483
6.01068
5.29975
4.59087
3.88324
3.17636
2.46993
1.76377
1.05784
0.352128
36.9805
36.5468
36.0461
35.478
34.8465
34.153
33.3944
32.5623
31.6436
30.623
29.4863
28.2262
26.8472
25.3689
23.8231
22.2495
20.6912
19.1866
17.7656
16.447
15.2371
14.1315
13.1186
12.1832
11.3099
10.4845
9.69485
8.93136
8.18653
7.45477
6.73201
6.01533
5.30267
4.59263
3.88425
3.1769
2.47019
1.76387
1.05783
0.352056
36.7785
36.3924
35.9246
35.3778
34.7576
34.0672
33.3053
32.4657
31.5382
30.5112
29.3744
28.1238
26.7653
25.317
23.8072
22.2712
20.747
19.2692
17.8653
16.5532
15.3407
14.2256
13.1993
12.2494
11.362
10.524
9.72397
8.9522
8.20106
7.46463
6.73852
6.0195
5.30525
4.59416
3.8851
3.17734
2.47038
1.76393
1.05783
0.35201
36.5823
36.2478
35.8151
35.2908
34.6832
33.9976
33.2345
32.3898
31.456
30.4243
29.2877
28.0445
26.7018
25.2765
23.7945
22.2875
20.7896
19.3326
17.942
16.6353
15.4209
14.2987
13.2622
12.3008
11.4023
10.5546
9.74634
8.96808
8.212
7.47195
6.74326
6.02245
5.307
4.59513
3.88559
3.17755
2.47043
1.76392
1.05781
0.352004
36.4144
36.1311
35.7321
35.2292
34.6339
33.954
33.1917
32.3447
31.4073
30.3727
29.2359
27.997
26.6637
25.2522
23.7869
22.2973
20.8153
19.3707
17.9881
16.6844
15.4687
14.3419
13.299
12.3305
11.4253
10.5715
9.75842
8.97635
8.21743
7.47536
6.74527
6.02354
5.30751
4.59529
3.88556
3.17742
2.47028
1.76379
1.05774
0.352031
36.299
36.0608
35.6903
35.2046
34.6195
33.9448
33.1848
32.338
31.3997
30.364
29.2265
27.9881
26.6566
25.2482
23.7867
22.3011
20.8226
19.3804
17.9987
16.6948
15.4778
14.349
13.3038
12.3333
11.4264
10.5714
9.75744
8.97492
8.21583
7.47377
6.74381
6.02226
5.30644
4.59441
3.88486
3.17687
2.46987
1.7635
1.05759
0.352059
36.2573
36.057
35.7058
35.2296
34.6495
33.9782
33.2211
32.377
31.4408
30.4058
29.2671
28.0249
26.687
25.2696
23.7974
22.3004
20.8108
19.3589
17.9699
16.6614
15.4425
14.3142
13.2714
12.3044
11.4016
10.5509
9.74091
8.96193
8.20583
7.46623
6.73822
6.01819
5.30351
4.59233
3.8834
3.17585
2.46915
1.76298
1.05724
0.351959
36.3769
36.1408
35.7662
35.2754
34.6871
34.0125
33.2555
32.4137
31.4807
30.4483
29.31
28.0646
26.7194
25.2912
23.8056
22.2943
20.7915
19.3289
17.9328
16.6211
15.4025
14.2775
13.2396
12.2782
11.381
10.5352
9.72942
8.95376
8.20021
7.46247
6.73579
6.01668
5.30262
4.59184
3.88315
3.17575
2.46911
1.76295
1.05715
0.351824
36.4133
36.13
35.731
35.2281
34.6328
33.9527
33.1903
32.3432
31.4057
30.371
29.2343
27.9954
26.6622
25.2509
23.7858
22.2965
20.8147
19.3703
17.9878
16.6843
15.4687
14.3419
13.299
12.3305
11.4253
10.5716
9.75843
8.97636
8.21743
7.47536
6.74527
6.02354
5.30752
4.5953
3.88556
3.17742
2.47028
1.76379
1.05774
0.352036
36.5232
36.1903
35.7586
35.2354
34.6279
33.9405
33.1737
32.3244
31.3862
30.3519
29.2165
27.9796
26.6487
25.2402
23.7785
22.293
20.8155
19.3754
17.9968
16.6967
15.4837
14.3585
13.316
12.3471
11.4406
10.5852
9.7701
8.98609
8.22535
7.48165
6.75018
6.02731
5.31036
4.59742
3.88713
3.17857
2.47111
1.76437
1.05809
0.352073
36.6905
36.3017
35.8323
35.2848
34.6627
33.9677
33.1984
32.3499
31.4143
30.3827
29.248
28.0085
26.671
25.2527
23.7792
22.2819
20.7942
19.3467
17.9644
16.6641
15.4539
14.3335
13.2965
12.3329
11.4311
10.5793
9.76694
8.98479
8.22524
7.48223
6.75111
6.02835
5.31138
4.59834
3.88792
3.17922
2.47163
1.76475
1.05831
0.352109
36.891
36.4448
35.9363
35.3635
34.7266
34.0251
33.2556
32.411
31.4811
30.4543
29.3202
28.0742
26.7224
25.2831
23.7848
22.2624
20.7524
19.2881
17.8959
16.5932
15.3868
14.2744
13.2475
12.2942
11.4018
10.558
9.75209
8.97481
8.21882
7.47831
6.74887
6.02721
5.31092
4.59828
3.88808
3.17947
2.47189
1.76498
1.05848
0.352186
37.1004
36.6004
36.0549
35.4581
34.808
34.1018
33.3344
32.4966
31.5755
30.5557
29.4225
28.1675
26.7954
25.3266
23.7935
22.2355
20.6941
19.2062
17.7999
16.4936
15.2924
14.1911
13.1779
12.2387
11.3592
10.5265
9.72942
8.95902
8.20816
7.47135
6.74449
6.02459
5.30945
4.59754
3.88778
3.17942
2.47197
1.7651
1.05861
0.352307
37.2971
36.7504
36.1726
35.5552
34.8942
34.1855
33.4222
32.5933
31.6831
30.6721
29.541
28.2764
26.8807
25.3777
23.8038
22.204
20.6261
19.1109
17.6888
16.379
15.1845
14.0962
13.0989
12.1757
11.3108
10.4904
9.70335
8.94068
8.19559
7.46298
6.73909
6.02123
5.30745
4.59643
3.88722
3.17919
2.47193
1.76516
1.05872
0.352456
37.4623
36.8787
36.2753
35.6417
34.9728
34.2632
33.505
32.6855
31.7867
30.7855
29.6575
28.3844
26.9662
25.4295
23.8145
22.1725
20.558
19.0162
17.5793
16.267
15.08
14.0051
13.0234
12.1157
11.2647
10.4561
9.6785
8.92314
8.18352
7.45488
6.73381
6.01789
5.30543
4.59526
3.88659
3.1789
2.47184
1.76518
1.05881
0.352605
37.5812
36.9722
36.3511
35.7065
35.0324
34.3229
33.5693
32.7578
31.8686
30.8758
29.7512
28.4724
27.037
25.4731
23.824
22.1465
20.5016
18.9387
17.4907
16.1775
14.9972
13.9333
12.9643
12.0689
11.2289
10.4294
9.65917
8.90947
8.17409
7.44854
6.72965
6.01524
5.3038
4.59431
3.88608
3.17865
2.47175
1.76519
1.05888
0.352726
37.6434
37.0214
36.3913
35.7412
35.0646
34.3554
33.6045
32.7976
31.9138
30.9259
29.8036
28.522
27.0774
25.4985
23.8298
22.1317
20.4692
18.8948
17.4411
16.1278
14.9515
13.8939
12.9319
12.0433
11.2093
10.4149
9.64863
8.90202
8.16895
7.44507
6.72738
6.01379
5.30291
4.59378
3.88578
3.17851
2.47169
1.76519
1.05891
0.352793
37.6435
37.0215
36.3914
35.7413
35.0647
34.3555
33.6046
32.7977
31.9139
30.926
29.8036
28.5221
27.0775
25.4986
23.8299
22.1317
20.4693
18.8949
17.4412
16.128
14.9516
13.894
12.9319
12.0433
11.2093
10.4149
9.64864
8.90203
8.16895
7.44507
6.72738
6.01379
5.30291
4.59378
3.88578
3.17851
2.47169
1.76519
1.05891
0.352793
37.5815
36.9725
36.3514
35.7068
35.0327
34.3233
33.5697
32.7582
31.8689
30.8762
29.7515
28.4727
27.0372
25.4733
23.8242
22.1467
20.5018
18.939
17.491
16.1778
14.9975
13.9335
12.9644
12.069
11.2289
10.4295
9.6592
8.9095
8.17411
7.44855
6.72966
6.01525
5.30381
4.59431
3.88608
3.17865
2.47175
1.76519
1.05888
0.352725
37.4628
36.8793
36.2758
35.6423
34.9733
34.2637
33.5056
32.6861
31.7873
30.7861
29.6581
28.385
26.9667
25.4299
23.8148
22.1729
20.5583
19.0166
17.5796
16.2674
15.0803
14.0053
13.0236
12.1158
11.2648
10.4562
9.67855
8.92317
8.18354
7.4549
6.73382
6.0179
5.30543
4.59526
3.88659
3.1789
2.47184
1.76518
1.05881
0.352605
37.2978
36.7511
36.1733
35.5559
34.8949
34.1862
33.423
32.5942
31.684
30.6731
29.5419
28.2772
26.8815
25.3784
23.8043
22.2045
20.6265
19.1113
17.6891
16.3793
15.1848
14.0964
13.099
12.1758
11.3109
10.4905
9.7034
8.94072
8.19562
7.463
6.73911
6.02124
5.30746
4.59643
3.88722
3.17919
2.47193
1.76516
1.05872
0.352456
37.1013
36.6012
36.0557
35.459
34.8088
34.1028
33.3354
32.4977
31.5767
30.5569
29.4237
28.1687
26.7964
25.3275
23.7942
22.2361
20.6946
19.2065
17.8002
16.4938
15.2926
14.1912
13.178
12.2388
11.3593
10.5265
9.72946
8.95906
8.20818
7.47136
6.74451
6.02459
5.30946
4.59754
3.88778
3.17942
2.47197
1.7651
1.05861
0.352307
36.892
36.4458
35.9373
35.3645
34.7276
34.0262
33.2567
32.4122
31.4825
30.4557
29.3216
28.0756
26.7236
25.2842
23.7857
22.2631
20.7529
19.2885
17.8962
16.5933
15.3869
14.2745
13.2476
12.2943
11.4019
10.5581
9.75212
8.97484
8.21884
7.47832
6.74888
6.02722
5.31093
4.59828
3.88808
3.17947
2.47189
1.76498
1.05848
0.352185
36.6916
36.3027
35.8334
35.2859
34.6638
33.9689
33.1997
32.3513
31.4157
30.3842
29.2496
28.01
26.6724
25.2539
23.7802
22.2827
20.7947
19.347
17.9646
16.6642
15.454
14.3336
13.2966
12.333
11.4311
10.5793
9.76695
8.9848
8.22525
7.48224
6.75111
6.02835
5.31138
4.59834
3.88792
3.17922
2.47163
1.76475
1.05832
0.352108
36.5243
36.1914
35.7597
35.2365
34.629
33.9417
33.1751
32.3258
31.3877
30.3536
29.2181
27.9812
26.6502
25.2415
23.7795
22.2938
20.816
19.3757
17.997
16.6968
15.4837
14.3585
13.316
12.3471
11.4406
10.5851
9.7701
8.98609
8.22535
7.48165
6.75018
6.02731
5.31036
4.59741
3.88712
3.17856
2.47111
1.76437
1.05809
0.352072
36.4144
36.1311
35.7321
35.2292
34.6339
33.954
33.1917
32.3447
31.4073
30.3727
29.236
27.9971
26.6637
25.2523
23.7869
22.2973
20.8153
19.3707
17.988
16.6844
15.4687
14.3419
13.2989
12.3305
11.4253
10.5715
9.75841
8.97634
8.21742
7.47535
6.74527
6.02354
5.30751
4.59529
3.88555
3.17741
2.47028
1.76378
1.05774
0.352033
36.378
36.1419
35.7673
35.2765
34.6882
34.0137
33.2568
32.4152
31.4823
30.45
29.3117
28.0663
26.721
25.2926
23.8067
22.2952
20.792
19.3293
17.933
16.6211
15.4025
14.2774
13.2395
12.2782
11.3809
10.5352
9.72939
8.95374
8.20019
7.46245
6.73578
6.01667
5.30261
4.59183
3.88314
3.17574
2.4691
1.76294
1.05715
0.351822
36.5425
36.2649
35.8614
35.3522
34.7539
34.0762
33.3213
32.4851
31.5587
30.5312
29.3933
28.1415
26.7822
25.3329
23.8216
22.2832
20.7551
19.2723
17.8627
16.5449
15.3271
14.208
13.1792
12.2283
11.3414
10.505
9.70705
8.93767
8.18893
7.45477
6.73068
6.01337
5.30055
4.59059
3.88243
3.17535
2.46889
1.76281
1.05702
0.351701
36.5813
36.2468
35.8141
35.2897
34.682
33.9964
33.2331
32.3884
31.4545
30.4227
29.286
28.0429
26.7004
25.2753
23.7935
22.2867
20.7891
19.3322
17.9418
16.6352
15.4209
14.2987
13.2622
12.3008
11.4024
10.5546
9.74635
8.96809
8.212
7.47195
6.74326
6.02245
5.30701
4.59514
3.8856
3.17755
2.47044
1.76392
1.05781
0.352009
36.6905
36.3017
35.8323
35.2848
34.6627
33.9677
33.1984
32.3498
31.4142
30.3826
29.248
28.0084
26.671
25.2526
23.7792
22.2819
20.7941
19.3467
17.9644
16.6641
15.4539
14.3336
13.2966
12.333
11.4311
10.5793
9.76696
8.9848
8.22525
7.48224
6.75111
6.02835
5.31138
4.59834
3.88792
3.17923
2.47164
1.76475
1.05831