# vtk DataFile Version 2.0
I need something to put here
ASCII

DATASET STRUCTURED_GRID
DIMENSIONS 41 21 21
POINTS 18081 float
0.000000 0.000000 0.000000
0.100000 0.000000 0.000000
0.200000 0.000000 0.000000
0.300000 0.000000 0.000000
0.400000 0.000000 0.000000
0.500000 0.000000 0.000000
0.600000 0.000000 0.000000
0.700000 0.000000 0.000000
0.800000 0.000000 0.000000
0.900000 0.000000 0.000000
1.000000 0.000000 0.000000
1.100000 0.000000 0.000000
1.200000 0.000000 0.000000
1.300000 0.000000 0.000000
1.400000 0.000000 0.000000
1.500000 0.000000 0.000000
1.600000 0.000000 0.000000
1.700000 0.000000 0.000000
1.800000 0.000000 0.000000
1.900000 0.000000 0.000000
2.000000 0.000000 0.000000
2.100000 0.000000 0.000000
2.200000 0.000000 0.000000
2.300000 0.000000 0.000000
2.400000 0.000000 0.000000
2.500000 0.000000 0.000000
2.600000 0.000000 0.000000
2.700000 0.000000 0.000000
2.800000 0.000000 0.000000
2.900000 0.000000 0.000000
3.000000 0.000000 0.000000
3.100000 0.000000 0.000000
3.200000 0.000000 0.000000
3.300000 0.000000 0.000000
3.400000 0.000000 0.000000
3.500000 0.000000 0.000000
3.600000 0.000000 0.000000
3.700000 0.000000 0.000000
3.800000 0.000000 0.000000
3.900000 0.000000 0.000000
4.000000 0.000000 0.000000
0.000000 0.100000 0.000000
0.100000 0.100000 0.000000
0.200000 0.100000 0.000000
0.300000 0.100000 0.000000
0.400000 0.100000 0.000000
0.500000 0.100000 0.000000
0.600000 0.100000 0.000000
0.700000 0.100000 0.000000
0.800000 0.100000 0.000000
0.900000 0.100000 0.000000
1.000000 0.100000 0.000000
1.100000 0.100000 0.000000
1.200000 0.100000 0.000000
1.300000 0.100000 0.000000
1.400000 0.100000 0.000000
1.500000 0.100000 0.000000
1.600000 0.100000 0.000000
1.700000 0.100000 0.000000
1.800000 0.100000 0.000000
1.900000 0.100000 0.000000
2.000000 0.100000 0.000000
2.100000 0.100000 0.000000
2.200000 0.100000 0.000000
2.300000 0.100000 0.000000
2.400000 0.100000 0.000000
2.500000 0.100000 0.000000
2.600000 0.100000 0.000000
2.700000 0.100000 0.000000
2.800000 0.100000 0.000000
2.900000 0.100000 0.000000
3.000000 0.100000 0.000000
3.100000 0.100000 0.000000
3.200000 0.100000 0.000000
3.300000 0.100000 0.000000
3.400000 0.100000 0.000000
3.500000 0.100000 0.000000
3.600000 0.100000 0.000000
3.700000 0.100000 0.000000
3.800000 0.100000 0.000000
3.900000 0.100000 0.000000
4.000000 0.100000 0.000000
0.000000 0.200000 0.000000
0.100000 0.200000 0.000000
0.200000 0.200000 0.000000
0.300000 0.200000 0.000000
0.400000 0.200000 0.000000
0.500000 0.200000 0.000000
0.600000 0.200000 0.000000
0.700000 0.200000 0.000000
0.800000 0.200000 0.000000
0.900000 0.200000 0.000000
1.000000 0.200000 0.000000
1.100000 0.200000 0.000000
1.200000 0.200000 0.000000
1.300000 0.200000 0.000000
1.400000 0.200000 0.000000
1.500000 0.200000 0.000000
1.600000 0.200000 0.000000
1.700000 0.200000 0.000000
1.800000 0.200000 0.000000
1.900000 0.200000 0.000000
2.000000 0.200000 0.000000
2.100000 0.200000 0.000000
2.200000 0.200000 0.000000
2.300000 0.200000 0.000000
2.400000 0.200000 0.000000
2.500000 0.200000 0.000000
2.600000 0.200000 0.000000
2.700000 0.200000 0.000000
2.800000 0.200000 0.000000
2.900000 0.200000 0.000000
3.000000 0.200000 0.000000
3.100000 0.200000 0.000000
3.200000 0.200000 0.000000
3.300000 0.200000 0.000000
3.400000 0.200000 0.000000
3.500000 0.200000 0.000000
3.600000 0.200000 0.000000
3.700000 0.200000 0.000000
3.800000 0.200000 0.000000
3.900000 0.200000 0.000000
4.000000 0.200000 0.000000
0.000000 0.300000 0.000000
0.100000 0.300000 0.000000
0.200000 0.300000 0.000000
0.300000 0.300000 0.000000
0.400000 0.300000 0.000000
0.500000 0.300000 0.000000
0.600000 0.300000 0.000000
0.700000 0.300000 0.000000
0.800000 0.300000 0.000000
0.900000 0.300000 0.000000
1.000000 0.300000 0.000000
1.100000 0.300000 0.000000
1.200000 0.300000 0.000000
1.300000 0.300000 0.000000
1.400000 0.300000 0.000000
1.500000 0.300000 0.000000
1.600000 0.300000 0.000000
1.700000 0.300000 0.000000
1.800000 0.300000 0.000000
1.900000 0.300000 0.000000
2.000000 0.300000 0.000000
2.100000 0.300000 0.000000
2.200000 0.300000 0.000000
2.300000 0.300000 0.000000
2.400000 0.300000 0.000000
2.500000 0.300000 0.000000
2.600000 0.300000 0.000000
2.700000 0.300000 0.000000
2.800000 0.300000 0.000000
2.900000 0.300000 0.000000
3.000000 0.300000 0.000000
3.100000 0.300000 0.000000
3.200000 0.300000 0.000000
3.300000 0.300000 0.000000
3.400000 0.300000 0.000000
3.500000 0.300000 0.000000
3.600000 0.300000 0.000000
3.700000 0.300000 0.000000
3.800000 0.300000 0.000000
3.900000 0.300000 0.000000
4.000000 0.300000 0.000000
0.000000 0.400000 0.000000
0.100000 0.400000 0.000000
0.200000 0.400000 0.000000
0.300000 0.400000 0.000000
0.400000 0.400000 0.000000
0.500000 0.400000 0.000000
0.600000 0.400000 0.000000
0.700000 0.400000 0.000000
0.800000 0.400000 0.000000
0.900000 0.400000 0.000000
1.000000 0.400000 0.000000
1.100000 0.400000 0.000000
1.200000 0.400000 0.000000
1.300000 0.400000 0.000000
1.400000 0.400000 0.000000
1.500000 0.400000 0.000000
1.600000 0.400000 0.000000
1.700000 0.400000 0.000000
1.800000 0.400000 0.000000
1.900000 0.400000 0.000000
2.000000 0.400000 0.000000
2.100000 0.400000 0.000000
2.200000 0.400000 0.000000
2.300000 0.400000 0.000000
2.400000 0.400000 0.000000
2.500000 0.400000 0.000000
2.600000 0.400000 0.000000
2.700000 0.400000 0.000000
2.800000 0.400000 0.000000
2.900000 0.400000 0.000000
3.000000 0.400000 0.000000
3.100000 0.400000 0.000000
3.200000 0.400000 0.000000
3.300000 0.400000 0.000000
3.400000 0.400000 0.000000
3.500000 0.400000 0.000000
3.600000 0.400000 0.000000
3.700000 0.400000 0.000000
3.800000 0.400000 0.000000
3.900000 0.400000 0.000000
4.000000 0.400000 0.000000
0.000000 0.500000 0.000000
0.100000 0.500000 0.000000
0.200000 0.500000 0.000000
0.300000 0.500000 0.000000
0.400000 0.500000 0.000000
0.500000 0.500000 0.000000
0.600000 0.500000 0.000000
0.700000 0.500000 0.000000
0.800000 0.500000 0.000000
0.900000 0.500000 0.000000
1.000000 0.500000 0.000000
1.100000 0.500000 0.000000
1.200000 0.500000 0.000000
1.300000 0.500000 0.000000
1.400000 0.500000 0.000000
1.500000 0.500000 0.000000
1.600000 0.500000 0.000000
1.700000 0.500000 0.000000
1.800000 0.500000 0.000000
1.900000 0.500000 0.000000
2.000000 0.500000 0.000000
2.100000 0.500000 0.000000
2.200000 0.500000 0.000000
2.300000 0.500000 0.000000
2.400000 0.500000 0.000000
2.500000 0.500000 0.000000
2.600000 0.500000 0.000000
2.700000 0.500000 0.000000
2.800000 0.500000 0.000000
2.900000 0.500000 0.000000
3.000000 0.500000 0.000000
3.100000 0.500000 0.000000
3.200000 0.500000 0.000000
3.300000 0.500000 0.000000
3.400000 0.500000 0.000000
3.500000 0.500000 0.000000
3.600000 0.500000 0.000000
3.700000 0.500000 0.000000
3.800000 0.500000 0.000000
3.900000 0.500000 0.000000
4.000000 0.500000 0.000000
0.000000 0.600000 0.000000
0.100000 0.600000 0.000000
0.200000 0.600000 0.000000
0.300000 0.600000 0.000000
0.400000 0.600000 0.000000
0.500000 0.600000 0.000000
0.600000 0.600000 0.000000
0.700000 0.600000 0.000000
0.800000 0.600000 0.000000
0.900000 0.600000 0.000000
1.000000 0.600000 0.000000
1.100000 0.600000 0.000000
1.200000 0.600000 0.000000
1.300000 0.600000 0.000000
1.400000 0.600000 0.000000
1.500000 0.600000 0.000000
1.600000 0.600000 0.000000
1.700000 0.600000 0.000000
1.800000 0.600000 0.000000
1.900000 0.600000 0.000000
2.000000 0.600000 0.000000
2.100000 0.600000 0.000000
2.200000 0.600000 0.000000
2.300000 0.600000 0.000000
2.400000 0.600000 0.000000
2.500000 0.600000 0.000000
2.600000 0.600000 0.000000
2.700000 0.600000 0.000000
2.800000 0.600000 0.000000
2.900000 0.600000 0.000000
3.000000 0.600000 0.000000
3.100000 0.600000 0.000000
3.200000 0.600000 0.000000
3.300000 0.600000 0.000000
3.400000 0.600000 0.000000
3.500000 0.600000 0.000000
3.600000 0.600000 0.000000
3.700000 0.600000 0.000000
3.800000 0.600000 0.000000
3.900000 0.600000 0.000000
4.000000 0.600000 0.000000
0.000000 0.700000 0.000000
0.100000 0.700000 0.000000
0.200000 0.700000 0.000000
0.300000 0.700000 0.000000
0.400000 0.700000 0.000000
0.500000 0.700000 0.000000
0.600000 0.700000 0.000000
0.700000 0.700000 0.000000
0.800000 0.700000 0.000000
0.900000 0.700000 0.000000
1.000000 0.700000 0.000000
1.100000 0.700000 0.000000
1.200000 0.700000 0.000000
1.300000 0.700000 0.000000
1.400000 0.700000 0.000000
1.500000 0.700000 0.000000
1.600000 0.700000 0.000000
1.700000 0.700000 0.000000
1.800000 0.700000 0.000000
1.900000 0.700000 0.000000
2.000000 0.700000 0.000000
2.100000 0.700000 0.000000
2.200000 0.700000 0.000000
2.300000 0.700000 0.000000
2.400000 0.700000 0.000000
2.500000 0.700000 0.000000
2.600000 0.700000 0.000000
2.700000 0.700000 0.000000
2.800000 0.700000 0.000000
2.900000 0.700000 0.000000
3.000000 0.700000 0.000000
3.100000 0.700000 0.000000
3.200000 0.700000 0.000000
3.300000 0.700000 0.000000
3.400000 0.700000 0.000000
3.500000 0.700000 0.000000
3.600000 0.700000 0.000000
3.700000 0.700000 0.000000
3.800000 0.700000 0.000000
3.900000 0.700000 0.000000
4.000000 0.700000 0.000000
0.000000 0.800000 0.000000
0.100000 0.800000 0.000000
0.200000 0.800000 0.000000
0.300000 0.800000 0.000000
0.400000 0.800000 0.000000
0.500000 0.800000 0.000000
0.600000 0.800000 0.000000
0.700000 0.800000 0.000000
0.800000 0.800000 0.000000
0.900000 0.800000 0.000000
1.000000 0.800000 0.000000
1.100000 0.800000 0.000000
1.200000 0.800000 0.000000
1.300000 0.800000 0.000000
1.400000 0.800000 0.000000
1.500000 0.800000 0.000000
1.600000 0.800000 0.000000
1.700000 0.800000 0.000000
1.800000 0.800000 0.000000
1.900000 0.800000 0.000000
2.000000 0.800000 0.000000
2.100000 0.800000 0.000000
2.200000 0.800000 0.000000
2.300000 0.800000 0.000000
2.400000 0.800000 0.000000
2.500000 0.800000 0.000000
2.600000 0.800000 0.000000
2.700000 0.800000 0.000000
2.800000 0.800000 0.000000
2.900000 0.800000 0.000000
3.000000 0.800000 0.000000
3.100000 0.800000 0.000000
3.200000 0.800000 0.000000
3.300000 0.800000 0.000000
3.400000 0.800000 0.000000
3.500000 0.800000 0.000000
3.600000 0.800000 0.000000
[...]
CELL_DATA 16000
SCALARS pressure float 1
LOOKUP_TABLE default
35.362
35.1858
34.8486
34.3826
33.8126
33.154
32.4138
31.5922
30.6851
29.6863
28.5908
27.3975
26.1123
24.7497
23.3326
21.8899
20.4535
19.0532
17.7137
16.4514
15.2744
14.183
13.1713
12.2297
11.3471
10.5118
9.71357
8.94317
8.19325
7.458
6.733
6.015
5.30167
4.59136
3.88297
3.17575
2.46923
1.76316
1.05744
0.352163
35.4173
35.2159
34.8648
34.3912
33.8171
33.1564
32.4154
31.5938
30.6872
29.6891
28.5941
27.401
26.1154
24.7519
23.3333
21.889
20.4511
19.0499
17.7099
16.4478
15.2714
14.1807
13.1699
12.2291
11.347
10.5122
9.71418
8.94389
8.19398
7.45868
6.7336
6.01551
5.30208
4.5917
3.88323
3.17595
2.46938
1.76326
1.05748
0.352106
35.5377
35.3
34.9252
34.4366
33.854
33.1896
32.4483
31.6289
30.7255
29.7304
28.6364
27.441
26.1491
24.7751
23.3432
21.8843
20.4329
19.0209
17.6741
16.4093
15.2337
14.1465
13.1405
12.2051
11.3283
10.4981
9.70394
8.93666
8.18904
7.4554
6.7315
6.01421
5.30132
4.59128
3.88303
3.17586
2.46935
1.76323
1.05741
0.351988
35.702
35.4224
35.0181
34.5104
33.9172
33.2489
32.509
31.6945
30.7976
29.8079
28.7157
27.5157
26.2114
24.8176
23.3603
21.8741
20.3974
18.9655
17.606
16.3362
15.1624
14.0816
13.0849
12.1596
11.2926
10.471
9.684
8.92241
8.17911
7.44866
6.72704
6.01135
5.29955
4.59022
3.88243
3.17554
2.46917
1.76312
1.0573
0.351883
35.8891
35.5677
35.1323
34.6044
34.0003
33.3293
32.593
31.7866
30.8996
29.9181
28.8285
27.6219
26.2998
24.8772
23.3832
21.8575
20.3443
18.8841
17.5072
16.231
15.0602
13.9893
13.006
12.0953
11.2422
10.4329
9.65594
8.90232
8.16509
7.43911
6.72069
6.00723
5.29696
4.58865
3.8815
3.17502
2.4689
1.76296
1.0572
0.351814
36.0795
35.7201
35.2555
34.7085
34.0948
33.4227
32.6925
31.897
31.023
30.0523
28.9666
27.7524
26.4084
24.9498
23.4099
21.8348
20.2766
18.7817
17.3839
16.1008
14.9349
13.8767
12.9105
12.0179
11.1818
10.3873
9.62252
8.87844
8.14843
7.42775
6.71313
6.00232
5.29385
4.58675
3.88039
3.1744
2.46856
1.76278
1.05711
0.351786
36.2558
35.8643
35.3746
34.8112
34.1902
33.5188
32.7963
32.0137
31.1545
30.1966
29.116
27.8942
26.5266
25.0288
23.4382
21.8085
20.2008
18.6685
17.2487
15.9593
14.7996
13.7562
12.8089
11.9361
11.1183
10.3396
9.58763
8.85358
8.13112
7.41597
6.70529
5.99723
5.29063
4.58477
3.87922
3.17374
2.46821
1.76261
1.05704
0.351789
36.4027
35.9864
35.4771
34.9012
34.275
33.6056
32.8913
32.1215
31.2771
30.3319
29.2572
28.0291
26.6396
25.1043
23.4648
21.7824
20.1271
18.5594
17.1196
15.8252
14.6725
13.6437
12.7146
11.8605
11.06
10.2959
9.55584
8.83099
8.11543
7.4053
6.6982
5.99262
5.28772
4.58298
3.87816
3.17314
2.4679
1.76247
1.057
0.35181
36.5079
36.0748
35.5522
34.9678
34.3386
33.6714
32.964
32.2046
31.3723
30.4378
29.3682
28.1358
26.7294
25.1645
23.4859
21.7612
20.068
18.4724
17.0173
15.7196
14.573
13.5563
12.6418
11.8024
11.0152
10.2625
9.53162
8.81381
8.10352
7.39722
6.69283
5.98914
5.28551
4.58163
3.87736
3.1727
2.46767
1.76237
1.05698
0.351834
36.5627
36.1212
35.5919
35.0033
34.3727
33.7069
33.0034
32.25
31.4244
30.496
29.4296
28.1951
26.7795
25.1982
23.4977
21.7492
20.0348
18.4238
16.9606
15.6614
14.5184
13.5084
12.602
11.7708
10.991
10.2445
9.51854
8.80455
8.0971
7.39288
6.68995
5.98728
5.28433
4.58091
3.87694
3.17246
2.46755
1.76232
1.05697
0.351849
36.5628
36.1213
35.5919
35.0034
34.3727
33.707
33.0035
32.2501
31.4245
30.4961
29.4297
28.1951
26.7795
25.1982
23.4977
21.7492
20.0349
18.4239
16.9607
15.6615
14.5185
13.5085
12.6021
11.7709
10.9911
10.2446
9.51858
8.80459
8.09713
7.3929
6.68997
5.98729
5.28435
4.58091
3.87694
3.17246
2.46755
1.76232
1.05697
0.351848
36.5081
36.075
35.5524
34.9681
34.3388
33.6716
32.9642
32.2049
31.3726
30.4381
29.3685
28.1361
26.7296
25.1647
23.486
21.7613
20.0681
18.4726
17.0176
15.7199
14.5733
13.5565
12.642
11.8026
11.0154
10.2627
9.53175
8.81392
8.1036
7.39729
6.69288
5.98918
5.28554
4.58165
3.87738
3.17271
2.46767
1.76237
1.05698
0.351829
36.4031
35.9868
35.4775
34.9016
34.2754
33.606
32.8918
32.122
31.2776
30.3324
29.2576
28.0295
26.6399
25.1046
23.465
21.7827
20.1274
18.5598
17.12
15.8256
14.6729
13.6441
12.715
11.8609
11.0602
10.2961
9.55604
8.83115
8.11556
7.40541
6.69828
5.99269
5.28776
4.58302
3.87819
3.17316
2.46791
1.76248
1.057
0.351802
36.2563
35.8648
35.3752
34.8118
34.1907
33.5194
32.797
32.0144
31.1552
30.1973
29.1167
27.8949
26.5271
25.0292
23.4386
21.8089
20.2012
18.6689
17.2492
15.9598
14.8002
13.7567
12.8093
11.9365
11.1186
10.3399
9.58789
8.8538
8.1313
7.41611
6.7054
5.99731
5.29069
4.58481
3.87925
3.17376
2.46822
1.76262
1.05704
0.351778
36.0802
35.7207
35.2562
34.7091
34.0955
33.4235
32.6933
31.8979
31.0238
30.0532
28.9675
27.7532
26.4091
24.9505
23.4104
21.8353
20.2771
18.7822
17.3844
16.1014
14.9354
13.8773
12.911
12.0184
11.1822
10.3876
9.62282
8.87869
8.14863
7.42791
6.71326
6.00242
5.29393
4.5868
3.88042
3.17442
2.46857
1.76279
1.0571
0.351773
35.8898
35.5684
35.1331
34.6051
34.0011
33.3301
32.5939
31.7875
30.9005
29.9191
28.8295
27.6229
26.3007
24.8779
23.3838
21.8581
20.3449
18.8847
17.5078
16.2316
15.0608
13.9898
13.0065
12.0958
11.2426
10.4332
9.65626
8.90259
8.1653
7.43928
6.72082
6.00734
5.29703
4.5887
3.88154
3.17505
2.46891
1.76296
1.05719
0.351801
35.7027
35.4232
35.0189
34.5112
33.918
33.2498
32.51
31.6955
30.7987
29.809
28.7168
27.5167
26.2124
24.8185
23.3611
21.8748
20.398
18.9661
17.6067
16.3369
15.163
14.0822
13.0854
12.1601
11.293
10.4714
9.68432
8.92268
8.17933
7.44884
6.72718
6.01146
5.29963
4.59028
3.88246
3.17556
2.46918
1.76312
1.0573
0.35187
35.5385
35.3008
34.926
34.4374
33.8548
33.1905
32.4493
31.6299
30.7266
29.7315
28.6376
27.4421
26.1501
24.7761
23.344
21.8851
20.4336
19.0216
17.6747
16.4099
15.2343
14.147
13.141
12.2056
11.3287
10.4985
9.70425
8.93693
8.18925
7.45557
6.73163
6.01431
5.3014
4.59133
3.88306
3.17588
2.46936
1.76323
1.0574
0.351976
35.4181
35.2167
34.8656
34.392
33.818
33.1573
32.4163
31.5948
30.6883
29.6902
28.5953
27.4021
26.1165
24.7528
23.3342
21.8898
20.4518
19.0505
17.7105
16.4484
15.272
14.1813
13.1703
12.2295
11.3474
10.5126
9.71447
8.94414
8.19418
7.45884
6.73372
6.0156
5.30215
4.59174
3.88326
3.17596
2.46938
1.76325
1.05747
0.352096
35.3628
35.1866
34.8494
34.3834
33.8134
33.1549
32.4147
31.5932
30.6862
29.6875
28.5919
27.3986
26.1134
24.7507
23.3335
21.8907
20.4542
19.0539
17.7143
16.452
15.275
14.1835
13.1717
12.2301
11.3474
10.5122
9.71385
8.94341
8.19344
7.45815
6.73312
6.01509
5.30173
4.59141
3.883
3.17576
2.46923
1.76316
1.05744
0.352156
35.4173
35.2159
34.8648
34.3912
33.8171
33.1564
32.4154
31.5938
30.6871
29.6891
28.5941
27.4009
26.1154
24.7519
23.3333
21.889
20.4511
19.0499
17.7099
16.4478
15.2714
14.1808
13.1699
12.2291
11.347
10.5122
9.71418
8.94389
8.19398
7.45868
6.7336
6.01551
5.30208
4.5917
3.88323
3.17595
2.46938
1.76326
1.05748
0.352106
35.46
35.2204
34.8503
34.3676
33.7889
33.1252
32.3815
31.5574
30.6487
29.6496
28.5554
27.3655
26.0858
24.7308
23.3226
21.8895
20.4625
19.0706
17.7376
16.4797
15.3049
14.2134
13.2001
12.2558
11.3697
10.5309
9.72918
8.95563
8.20297
7.46544
6.73859
6.01913
5.30468
4.59353
3.88452
3.17684
2.47001
1.7637
1.05778
0.352194
35.5758
35.2907
34.8919
34.3918
33.803
33.1338
32.3877
31.5632
30.6554
29.6575
28.5643
27.3743
26.0932
24.7353
23.3232
21.886
20.4554
19.0611
17.7272
16.4698
15.2964
14.207
13.1958
12.2535
11.369
10.5313
9.73024
8.95705
8.20452
7.46694
6.73995
6.02031
5.30566
4.59433
3.88515
3.17733
2.47037
1.76396
1.05792
0.352171
35.7428
35.4062
34.9734
34.4515
33.8499
33.1746
32.4272
31.6047
30.7003
29.7058
28.6135
27.4204
26.1312
24.7604
23.3319
21.877
20.4304
19.0239
17.6826
16.4229
15.2514
14.1669
13.1621
12.2265
11.3484
10.5162
9.71959
8.94983
8.19981
7.46402
6.73825
6.01942
5.30527
4.59423
3.88521
3.17747
2.47052
1.76408
1.05798
0.352149
35.9367
35.5483
35.0801
34.5353
33.9204
33.2396
32.4927
31.6746
30.7765
29.7872
28.6961
27.4976
26.1946
24.802
23.3461
21.862
20.3888
18.9619
17.6083
16.3444
15.1758
14.0989
13.1043
12.1797
11.312
10.4888
9.69971
8.93581
8.19022
7.45765
6.73416
6.01689
5.30378
4.59342
3.88481
3.17731
2.47049
1.7641
1.05801
0.352158
36.1353
35.6994
35.1979
34.6314
34.0044
33.3196
32.575
31.7637
30.8742
29.892
28.8029
27.5974
26.2766
24.8555
23.3638
21.8417
20.3339
18.8807
17.5116
16.2428
15.0782
14.0113
13.03
12.1194
11.265
10.4534
9.67378
8.91736
8.17744
7.44903
6.72851
6.0133
5.30158
4.59213
3.88411
3.17697
2.47035
1.76407
1.05802
0.3522
36.3194
35.8431
35.3129
34.7275
34.0906
33.4035
32.6629
31.86
30.9807
30.0071
28.9206
27.708
26.3676
24.915
23.3831
21.8181
20.2719
18.7898
17.404
16.1305
14.9709
13.9156
12.9491
12.054
11.214
10.415
9.64568
8.89733
8.16351
7.43958
6.72226
6.00928
5.29908
4.59064
3.88326
3.17652
2.47015
1.764
1.05803
0.352266
36.4728
35.965
35.4121
34.8121
34.1679
33.48
32.7441
31.9498
31.0808
30.116
29.0329
27.8141
26.4554
24.9725
23.4016
21.7948
20.2113
18.7018
17.3006
16.0235
14.8694
13.8256
12.8734
11.9931
11.1667
10.3794
9.61963
8.87875
8.15058
7.4308
6.71644
6.00552
5.29673
4.58922
3.88245
3.17608
2.46994
1.76393
1.05805
0.352339
36.5827
36.0532
35.4849
34.875
34.226
33.5382
32.8064
32.0193
31.1588
30.2014
29.1215
27.8984
26.5257
25.0187
23.4164
21.7758
20.1625
18.6315
17.2186
15.9391
14.79
13.7555
12.8147
11.946
11.1302
10.352
9.59962
8.86449
8.14066
7.42405
6.71196
6.00262
5.29491
4.58811
3.88181
3.17574
2.46978
1.76388
1.05806
0.3524
36.64
36.0996
35.5234
34.9084
34.2572
33.5696
32.8402
32.0572
31.2015
30.2484
29.1705
27.9453
26.5649
25.0447
23.4247
21.7651
20.1351
18.5922
17.1731
15.8926
14.7463
13.7171
12.7827
11.9203
11.1104
10.3372
9.58878
8.85678
8.13529
7.4204
6.70954
6.00105
5.29392
4.58752
3.88146
3.17555
2.46969
1.76385
1.05807
0.352435
36.6401
36.0997
35.5235
34.9085
34.2573
33.5697
32.8403
32.0573
31.2016
30.2485
29.1706
27.9454
26.565
25.0447
23.4247
21.7652
20.1352
18.5923
17.1732
15.8927
14.7464
13.7172
12.7827
11.9204
11.1105
10.3372
9.58882
8.85681
8.13532
7.42043
6.70956
6.00107
5.29393
4.58752
3.88147
3.17556
2.46969
1.76385
1.05807
0.352435
36.5829
36.0535
35.4851
34.8752
34.2263
33.5384
32.8067
32.0195
31.1591
30.2016
29.1217
27.8986
26.5258
25.0188
23.4165
21.776
20.1627
18.6317
17.2188
15.9394
14.7902
13.7558
12.8149
11.9462
11.1304
10.3522
9.59974
8.86459
8.14074
7.42411
6.71201
6.00266
5.29494
4.58814
3.88182
3.17575
2.46979
1.76389
1.05807
0.352399
36.4732
35.9654
35.4125
34.8125
34.1683
33.4804
32.7445
31.9502
31.0813
30.1164
29.0333
27.8145
26.4558
24.9728
23.4018
21.795
20.2116
18.7022
17.301
16.0239
14.8698
13.826
12.8737
11.9934
11.167
10.3796
9.61982
8.8789
8.15071
7.4309
6.71652
6.00558
5.29677
4.58925
3.88247
3.1761
2.46996
1.76394
1.05806
0.352336
36.3199
35.8436
35.3134
34.728
34.0912
33.4041
32.6635
31.8607
30.9814
30.0077
28.9213
27.7086
26.3682
24.9155
23.3835
21.8185
20.2723
18.7903
17.4044
16.131
14.9714
13.9161
12.9495
12.0544
11.2144
10.4153
9.64592
8.89752
8.16367
7.43971
6.72237
6.00936
5.29915
4.59068
3.8833
3.17655
2.47016
1.76401
1.05804
0.352262
36.1359
35.7
35.1986
34.632
34.005
33.3203
32.5757
31.7645
30.875
29.8929
28.8037
27.5982
26.2773
24.8562
23.3644
21.8422
20.3344
18.8812
17.5121
16.2433
15.0787
14.0118
13.0304
12.1198
11.2653
10.4537
9.67406
8.91759
8.17763
7.44918
6.72863
6.01339
5.30165
4.59218
3.88415
3.17699
2.47037
1.76408
1.05803
0.352195
35.9374
35.5491
35.0808
34.536
33.9212
33.2404
32.4935
31.6755
30.7774
29.7881
28.6971
27.4985
26.1955
24.8027
23.3467
21.8626
20.3894
18.9624
17.6088
16.345
15.1763
14.0994
13.1048
12.1801
11.3123
10.4892
9.7
8.93606
8.19042
7.45782
6.73429
6.01699
5.30386
4.59347
3.88485
3.17734
2.47051
1.76412
1.05802
0.352152
35.7436
35.407
34.9741
34.4523
33.8507
33.1755
32.4281
31.6057
30.7014
29.7068
28.6145
27.4214
26.1322
24.7612
23.3326
21.8777
20.431
19.0245
17.6832
16.4234
15.252
14.1674
13.1626
12.2269
11.3488
10.5165
9.71989
8.95008
8.20002
7.46419
6.73839
6.01952
5.30534
4.59428
3.88525
3.17749
2.47054
1.76409
1.05799
0.352142
35.5766
35.2915
34.8927
34.3926
33.8038
33.1347
32.3887
31.5643
30.6564
29.6586
28.5654
27.3754
26.0942
24.7362
23.3241
21.8868
20.456
19.0617
17.7278
16.4703
15.2969
14.2075
13.1963
12.2539
11.3694
10.5316
9.73053
8.9573
8.20472
7.4671
6.74008
6.02041
5.30574
4.59438
3.88518
3.17735
2.47039
1.76397
1.05793
0.352164
35.4608
35.2212
34.8511
34.3684
33.7897
33.1261
32.3825
31.5584
30.6498
29.6508
28.5566
27.3666
26.0869
24.7317
23.3235
21.8903
20.4632
19.0712
17.7382
16.4803
15.3054
14.2139
13.2005
12.2562
11.3701
10.5313
9.72946
8.95586
8.20317
7.46559
6.73871
6.01922
5.30475
4.59358
3.88454
3.17686
2.47001
1.7637
1.05778
0.352186
35.418
35.2167
34.8656
34.392
33.8179
33.1573
32.4163
31.5948
30.6882
29.6902
28.5952
27.4021
26.1164
24.7528
23.3341
21.8898
20.4518
19.0505
17.7105
16.4483
15.2719
14.1812
13.1703
12.2295
11.3474
10.5125
9.71445
8.94411
8.19416
7.45882
6.73371
6.01559
5.30214
4.59173
3.88325
3.17596
2.46938
1.76325
1.05747
0.352099
35.5377
35.3
34.9252
34.4366
33.854
33.1896
32.4483
31.6288
30.7255
29.7303
28.6364
27.441
26.149
24.7751
23.3431
21.8843
20.4328
19.0209
17.6741
16.4093
15.2337
14.1465
13.1406
12.2052
11.3283
10.4982
9.70396
8.93668
8.18905
7.45541
6.7315
6.01421
5.30133
4.59128
3.88303
3.17586
2.46935
1.76323
1.05741
0.351988
35.5758
35.2907
34.8919
34.3918
33.803
33.1338
32.3877
31.5632
30.6553
29.6575
28.5642
27.3742
26.0931
24.7352
23.3232
21.886
20.4554
19.0611
17.7272
16.4698
15.2964
14.207
13.1958
12.2535
11.369
10.5313
9.73025
8.95706
8.20452
7.46694
6.73995
6.02031
5.30566
4.59433
3.88515
3.17733
2.47037
1.76396
1.05792
0.352171
35.6868
35.3515
34.92
34.3998
33.7989
33.1225
32.3721
31.5453
30.6365
29.6391
28.5471
27.3591
26.0804
24.7253
23.3164
21.8827
20.456
19.0658
17.7359
16.4818
15.3109
14.2229
13.212
12.2691
11.3833
10.5439
9.74102
8.96598
8.21174
7.47265
6.74439
6.0237
5.30822
4.59623
3.88654
3.17835
2.47111
1.76447
1.05822
0.352204
35.8537
35.4621
34.9927
34.4481
33.8323
33.148
32.3946
31.5683
30.6619
29.6673
28.5768
27.3873
26.1032
24.7389
23.3182
21.8723
20.4351
19.0376
17.7044
16.4509
15.2833
14.2002
13.1946
12.2567
11.3751
10.539
9.73849
8.96507
8.21184
7.47332
6.74533
6.02471
5.30918
4.59709
3.88727
3.17895
2.47158
1.76482
1.05843
0.352237
36.0519
35.6029
35.0943
34.524
33.893
33.2015
32.4471
31.6241
30.7233
29.7338
28.6451
27.4513
26.155
24.771
23.3257
21.8539
20.3939
18.9801
17.6383
16.3835
15.2206
14.1458
13.15
12.2218
11.349
10.5202
9.72549
8.95642
8.20633
7.47
6.74348
6.02381
5.30885
4.59709
3.88745
3.17919
2.47183
1.76503
1.05858
0.352307
36.2577
35.7551
35.2093
34.6147
33.9698
33.2727
32.5196
31.7025
30.81
29.8281
28.7421
27.5423
26.2289
24.8171
23.3366
21.8281
20.336
18.8992
17.5452
16.2889
15.1324
14.069
13.0866
12.1717
11.3109
10.4922
9.70546
8.94257
8.19705
7.46399
6.73973
6.02159
5.30764
4.5965
3.88724
3.17919
2.47192
1.76515
1.0587
0.352416
36.4499
35.9012
35.323
34.7074
34.0509
33.3503
32.6002
31.791
30.909
29.9365
28.8546
27.6486
26.3156
24.8714
23.3496
21.7975
20.2677
18.8045
17.4372
16.1799
15.0316
13.9815
13.0145
12.1147
11.2674
10.46
9.68237
8.92642
8.18606
7.45672
6.73508
6.01872
5.30595
4.59558
3.88679
3.17902
2.47191
1.76522
1.05881
0.352549
36.6109
36.0257
35.4219
34.7898
34.1246
33.4223
32.6762
31.8755
31.0044
30.0421
28.9654
27.7546
26.403
24.9267
23.3628
21.7663
20.1985
18.7096
17.3303
16.0732
14.9338
13.8974
12.9456
12.0605
11.2261
10.4294
9.66035
8.91096
8.17548
7.44967
6.73052
6.01587
5.30424
4.59461
3.88628
3.1788
2.47185
1.76525
1.0589
0.352682
36.7264
36.1161
35.4947
34.8513
34.1805
33.4776
32.7353
31.9418
31.08
30.1265
29.0549
27.8412
26.4755
24.9734
23.3743
21.7401
20.1407
18.6314
17.2434
15.9876
14.8561
13.8311
12.8916
12.018
11.1938
10.4056
9.64319
8.89891
8.16722
7.44415
6.72692
6.0136
5.30286
4.59382
3.88586
3.1786
2.47179
1.76527
1.05896
0.352789
36.7867
36.1637
35.5333
34.8841
34.2106
33.5076
32.7675
31.9783
31.1217
30.1734
29.1051
27.8903
26.5172
25.0006
23.3811
21.725
20.1073
18.5868
17.1945
15.9399
14.8132
13.7946
12.862
11.9949
11.1762
10.3926
9.63385
8.89235
8.16271
7.44113
6.72495
6.01236
5.30211
4.59338
3.88562
3.17849
2.47175
1.76528
1.059
0.352848
36.7868
36.1637
35.5334
34.8842
34.2107
33.5077
32.7676
31.9784
31.1218
30.1735
29.1051
27.8903
26.5172
25.0006
23.3811
21.7251
20.1074
18.5869
17.1946
15.94
14.8133
13.7947
12.862
11.9949
11.1763
10.3927
9.63389
8.89238
8.16274
7.44115
6.72497
6.01237
5.30212
4.59339
3.88563
3.17849
2.47175
1.76528
1.059
0.352848
36.7267
36.1164
35.495
34.8515
34.1807
33.4778
32.7355
31.9421
31.0802
30.1268
29.0551
27.8414
26.4756
24.9735
23.3744
21.7403
20.1409
18.6317
17.2437
15.9879
14.8564
13.8314
12.8918
12.0182
11.194
10.4058
9.64331
8.899
8.16729
7.44421
6.72697
6.01363
5.30289
4.59384
3.88588
3.17861
2.47179
1.76527
1.05896
0.352788
36.6113
36.0261
35.4223
34.7902
34.125
33.4227
32.6766
31.876
31.0049
30.0426
28.9659
27.755
26.4033
24.927
23.3631
21.7666
20.1988
18.71
17.3307
16.0736
14.9342
13.8978
12.946
12.0607
11.2263
10.4297
9.66052
8.91111
8.1756
7.44977
6.73059
6.01592
5.30428
4.59464
3.88631
3.17881
2.47186
1.76526
1.0589
0.35268
36.4505
35.9017
35.3236
34.7079
34.0514
33.3509
32.6008
31.7917
30.9097
29.9372
28.8553
27.6492
26.3161
24.8719
23.35
21.7979
20.2681
18.8049
17.4377
16.1804
15.032
13.9819
13.0149
12.1151
11.2677
10.4603
9.6826
8.92661
8.18621
7.45685
6.73518
6.0188
5.30601
4.59563
3.88682
3.17904
2.47192
1.76523
1.05881
0.352547
36.2583
35.7558
35.2099
34.6153
33.9704
33.2734
32.5203
31.7033
30.8109
29.8289
28.743
27.5431
26.2296
24.8177
23.3372
21.8286
20.3365
18.8997
17.5457
16.2894
15.1329
14.0694
13.087
12.1721
11.3112
10.4925
9.70572
8.94279
8.19723
7.46413
6.73985
6.02168
5.3077
4.59655
3.88727
3.17921
2.47193
1.76516
1.05871
0.352413
36.0526
35.6036
35.095
34.5247
33.8937
33.2023
32.4479
31.625
30.7242
29.7348
28.6461
27.4522
26.1559
24.7718
23.3264
21.8545
20.3945
18.9806
17.6388
16.384
15.2211
14.1463
13.1505
12.2222
11.3494
10.5206
9.72577
8.95665
8.20652
7.47016
6.7436
6.0239
5.30893
4.59715
3.88749
3.17922
2.47184
1.76503
1.05858
0.352304
35.8545
35.4628
34.9934
34.4488
33.8331
33.1488
32.3955
31.5692
30.663
29.6684
28.5779
27.3883
26.1042
24.7398
23.319
21.873
20.4357
19.0382
17.705
16.4514
15.2838
14.2006
13.1951
12.2571
11.3755
10.5393
9.73878
8.96532
8.21204
7.47348
6.74545
6.02481
5.30925
4.59714
3.88731
3.17897
2.47159
1.76482
1.05843
0.352233
35.6876
35.3523
34.9207
34.4006
33.7997
33.1233
32.373
31.5463
30.6376
29.6402
28.5482
27.3602
26.0814
24.7262
23.3172
21.8835
20.4567
19.0664
17.7364
16.4824
15.3114
14.2234
13.2125
12.2695
11.3837
10.5443
9.7413
8.96622
8.21194
7.47281
6.74451
6.0238
5.30829
4.59627
3.88657
3.17837
2.47112
1.76447
1.05823
0.352199
35.5766
35.2915
34.8927
34.3926
33.8038
33.1347
32.3887
31.5643
30.6565
29.6587
28.5654
27.3754
26.0942
24.7362
23.3241
21.8868
20.4561
19.0617
17.7278
16.4704
15.2969
14.2075
13.1963
12.2539
11.3693
10.5316
9.73052
8.95729
8.20471
7.46709
6.74007
6.0204
5.30572
4.59437
3.88517
3.17734
2.47038
1.76396
1.05792
0.352164
35.5385
35.3008
34.9259
34.4374
33.8548
33.1904
32.4492
31.6299
30.7266
29.7315
28.6376
27.4421
26.1501
24.7761
23.344
21.8851
20.4335
19.0215
17.6747
16.4098
15.2342
14.147
13.141
12.2056
11.3287
10.4985
9.70421
8.93688
8.18921
7.45554
6.7316
6.01429
5.30137
4.59131
3.88304
3.17587
2.46934
1.76322
1.0574
0.35198
35.702
35.4224
35.0181
34.5104
33.9172
33.2489
32.509
31.6944
30.7975
29.8078
28.7156
27.5156
26.2113
24.8175
23.3602
21.8741
20.3973
18.9655
17.6061
16.3363
15.1625
14.0817
13.085
12.1597
11.2926
10.4711
9.68403
8.92243
8.17913
7.44867
6.72705
6.01136
5.29955
4.59022
3.88243
3.17554
2.46918
1.76312
1.0573
0.351883
35.7428
35.4062
34.9734
34.4515
33.8499
33.1746
32.4272
31.6046
30.7003
29.7057
28.6134
27.4203
26.1311
24.7603
23.3318
21.877
20.4304
19.0239
17.6827
16.4229
15.2515
14.1669
13.1621
12.2266
11.3484
10.5162
9.71961
8.94984
8.19983
7.46403
6.73826
6.01942
5.30527
4.59423
3.88521
3.17747
2.47052
1.76408
1.05798
0.35215
35.8537
35.4621
34.9927
34.4481
33.8323
33.1479
32.3946
31.5682
30.6619
29.6672
28.5767
27.3872
26.1031
24.7388
23.3182
21.8723
20.435
19.0377
17.7045
16.4509
15.2833
14.2002
13.1947
12.2567
11.3751
10.539
9.7385
8.96508
8.21185
7.47333
6.74533
6.02471
5.30918
4.59709
3.88728
3.17895
2.47158
1.76482
1.05843
0.352237
36.022