# vtk DataFile Version 2.0
I need something to put here
ASCII

DATASET STRUCTURED_GRID
DIMENSIONS 41 21 21
POINTS 18081 float
0.000000 0.000000 0.000000
0.100000 0.000000 0.000000
0.200000 0.000000 0.000000
0.300000 0.000000 0.000000
0.400000 0.000000 0.000000
0.500000 0.000000 0.000000
0.600000 0.000000 0.000000
0.700000 0.000000 0.000000
0.800000 0.000000 0.000000
0.900000 0.000000 0.000000
1.000000 0.000000 0.000000
1.100000 0.000000 0.000000
1.200000 0.000000 0.000000
1.300000 0.000000 0.000000
1.400000 0.000000 0.000000
1.500000 0.000000 0.000000
1.600000 0.000000 0.000000
1.700000 0.000000 0.000000
1.800000 0.000000 0.000000
1.900000 0.000000 0.000000
2.000000 0.000000 0.000000
2.100000 0.000000 0.000000
2.200000 0.000000 0.000000
2.300000 0.000000 0.000000
2.400000 0.000000 0.000000
2.500000 0.000000 0.000000
2.600000 0.000000 0.000000
2.700000 0.000000 0.000000
2.800000 0.000000 0.000000
2.900000 0.000000 0.000000
3.000000 0.000000 0.000000
3.100000 0.000000 0.000000
3.200000 0.000000 0.000000
3.300000 0.000000 0.000000
3.400000 0.000000 0.000000
3.500000 0.000000 0.000000
3.600000 0.000000 0.000000
3.700000 0.000000 0.000000
3.800000 0.000000 0.000000
3.900000 0.000000 0.000000
4.000000 0.000000 0.000000
0.000000 0.100000 0.000000
0.100000 0.100000 0.000000
0.200000 0.100000 0.000000
0.300000 0.100000 0.000000
0.400000 0.100000 0.000000
0.500000 0.100000 0.000000
0.600000 0.100000 0.000000
0.700000 0.100000 0.000000
0.800000 0.100000 0.000000
0.900000 0.100000 0.000000
1.000000 0.100000 0.000000
1.100000 0.100000 0.000000
1.200000 0.100000 0.000000
1.300000 0.100000 0.000000
1.400000 0.100000 0.000000
1.500000 0.100000 0.000000
1.600000 0.100000 0.000000
1.700000 0.100000 0.000000
1.800000 0.100000 0.000000
1.900000 0.100000 0.000000
2.000000 0.100000 0.000000
2.100000 0.100000 0.000000
2.200000 0.100000 0.000000
2.300000 0.100000 0.000000
2.400000 0.100000 0.000000
2.500000 0.100000 0.000000
2.600000 0.100000 0.000000
2.700000 0.100000 0.000000
2.800000 0.100000 0.000000
2.900000 0.100000 0.000000
3.000000 0.100000 0.000000
3.100000 0.100000 0.000000
3.200000 0.100000 0.000000
3.300000 0.100000 0.000000
3.400000 0.100000 0.000000
3.500000 0.100000 0.000000
3.600000 0.100000 0.000000
3.700000 0.100000 0.000000
3.800000 0.100000 0.000000
3.900000 0.100000 0.000000
4.000000 0.100000 0.000000
0.000000 0.200000 0.000000
0.100000 0.200000 0.000000
0.200000 0.200000 0.000000
0.300000 0.200000 0.000000
0.400000 0.200000 0.000000
0.500000 0.200000 0.000000
0.600000 0.200000 0.000000
0.700000 0.200000 0.000000
0.800000 0.200000 0.000000
0.900000 0.200000 0.000000
1.000000 0.200000 0.000000
1.100000 0.200000 0.000000
1.200000 0.200000 0.000000
1.300000 0.200000 0.000000
1.400000 0.200000 0.000000
1.500000 0.200000 0.000000
1.600000 0.200000 0.000000
1.700000 0.200000 0.000000
1.800000 0.200000 0.000000
1.900000 0.200000 0.000000
2.000000 0.200000 0.000000
2.100000 0.200000 0.000000
2.200000 0.200000 0.000000
2.300000 0.200000 0.000000
2.400000 0.200000 0.000000
2.500000 0.200000 0.000000
2.600000 0.200000 0.000000
2.700000 0.200000 0.000000
2.800000 0.200000 0.000000
2.900000 0.200000 0.000000
3.000000 0.200000 0.000000
3.100000 0.200000 0.000000
3.200000 0.200000 0.000000
3.300000 0.200000 0.000000
3.400000 0.200000 0.000000
3.500000 0.200000 0.000000
3.600000 0.200000 0.000000
3.700000 0.200000 0.000000
3.800000 0.200000 0.000000
3.900000 0.200000 0.000000
4.000000 0.200000 0.000000
0.000000 0.300000 0.000000
0.100000 0.300000 0.000000
0.200000 0.300000 0.000000
0.300000 0.300000 0.000000
0.400000 0.300000 0.000000
0.500000 0.300000 0.000000
0.600000 0.300000 0.000000
0.700000 0.300000 0.000000
0.800000 0.300000 0.000000
0.900000 0.300000 0.000000
1.000000 0.300000 0.000000
1.100000 0.300000 0.000000
1.200000 0.300000 0.000000
1.300000 0.300000 0.000000
1.400000 0.300000 0.000000
1.500000 0.300000 0.000000
1.600000 0.300000 0.000000
1.700000 0.300000 0.000000
1.800000 0.300000 0.000000
1.900000 0.300000 0.000000
2.000000 0.300000 0.000000
2.100000 0.300000 0.000000
2.200000 0.300000 0.000000
2.300000 0.300000 0.000000
2.400000 0.300000 0.000000
2.500000 0.300000 0.000000
2.600000 0.300000 0.000000
2.700000 0.300000 0.000000
2.800000 0.300000 0.000000
2.900000 0.300000 0.000000
3.000000 0.300000 0.000000
3.100000 0.300000 0.000000
3.200000 0.300000 0.000000
3.300000 0.300000 0.000000
3.400000 0.300000 0.000000
3.500000 0.300000 0.000000
3.600000 0.300000 0.000000
3.700000 0.300000 0.000000
3.800000 0.300000 0.000000
3.900000 0.300000 0.000000
4.000000 0.300000 0.000000
0.000000 0.400000 0.000000
0.100000 0.400000 0.000000
0.200000 0.400000 0.000000
0.300000 0.400000 0.000000
0.400000 0.400000 0.000000
0.500000 0.400000 0.000000
0.600000 0.400000 0.000000
0.700000 0.400000 0.000000
0.800000 0.400000 0.000000
0.900000 0.400000 0.000000
1.000000 0.400000 0.000000
1.100000 0.400000 0.000000
1.200000 0.400000 0.000000
1.300000 0.400000 0.000000
1.400000 0.400000 0.000000
1.500000 0.400000 0.000000
1.600000 0.400000 0.000000
1.700000 0.400000 0.000000
1.800000 0.400000 0.000000
1.900000 0.400000 0.000000
2.000000 0.400000 0.000000
2.100000 0.400000 0.000000
2.200000 0.400000 0.000000
2.300000 0.400000 0.000000
2.400000 0.400000 0.000000
2.500000 0.400000 0.000000
2.600000 0.400000 0.000000
2.700000 0.400000 0.000000
2.800000 0.400000 0.000000
2.900000 0.400000 0.000000
3.000000 0.400000 0.000000
3.100000 0.400000 0.000000
3.200000 0.400000 0.000000
3.300000 0.400000 0.000000
3.400000 0.400000 0.000000
3.500000 0.400000 0.000000
3.600000 0.400000 0.000000
3.700000 0.400000 0.000000
3.800000 0.400000 0.000000
3.900000 0.400000 0.000000
4.000000 0.400000 0.000000
0.000000 0.500000 0.000000
0.100000 0.500000 0.000000
0.200000 0.500000 0.000000
0.300000 0.500000 0.000000
0.400000 0.500000 0.000000
0.500000 0.500000 0.000000
0.600000 0.500000 0.000000
0.700000 0.500000 0.000000
0.800000 0.500000 0.000000
0.900000 0.500000 0.000000
1.000000 0.500000 0.000000
1.100000 0.500000 0.000000
1.200000 0.500000 0.000000
1.300000 0.500000 0.000000
1.400000 0.500000 0.000000
1.500000 0.500000 0.000000
1.600000 0.500000 0.000000
1.700000 0.500000 0.000000
1.800000 0.500000 0.000000
1.900000 0.500000 0.000000
2.000000 0.500000 0.000000
2.100000 0.500000 0.000000
2.200000 0.500000 0.000000
2.300000 0.500000 0.000000
2.400000 0.500000 0.000000
2.500000 0.500000 0.000000
2.600000 0.500000 0.000000
2.700000 0.500000 0.000000
2.800000 0.500000 0.000000
2.900000 0.500000 0.000000
3.000000 0.500000 0.000000
3.100000 0.500000 0.000000
3.200000 0.500000 0.000000
3.300000 0.500000 0.000000
3.400000 0.500000 0.000000
3.500000 0.500000 0.000000
3.600000 0.500000 0.000000
3.700000 0.500000 0.000000
3.800000 0.500000 0.000000
3.900000 0.500000 0.000000
4.000000 0.500000 0.000000
0.000000 0.600000 0.000000
0.100000 0.600000 0.000000
0.200000 0.600000 0.000000
0.300000 0.600000 0.000000
0.400000 0.600000 0.000000
0.500000 0.600000 0.000000
0.600000 0.600000 0.000000
0.700000 0.600000 0.000000
0.800000 0.600000 0.000000
0.900000 0.600000 0.000000
1.000000 0.600000 0.000000
1.100000 0.600000 0.000000
1.200000 0.600000 0.000000
1.300000 0.600000 0.000000
1.400000 0.600000 0.000000
1.500000 0.600000 0.000000
1.600000 0.600000 0.000000
1.700000 0.600000 0.000000
1.800000 0.600000 0.000000
1.900000 0.600000 0.000000
2.000000 0.600000 0.000000
2.100000 0.600000 0.000000
2.200000 0.600000 0.000000
2.300000 0.600000 0.000000
2.400000 0.600000 0.000000
2.500000 0.600000 0.000000
2.600000 0.600000 0.000000
2.700000 0.600000 0.000000
2.800000 0.600000 0.000000
2.900000 0.600000 0.000000
3.000000 0.600000 0.000000
3.100000 0.600000 0.000000
3.200000 0.600000 0.000000
3.300000 0.600000 0.000000
3.400000 0.600000 0.000000
3.500000 0.600000 0.000000
3.600000 0.600000 0.000000
3.700000 0.600000 0.000000
3.800000 0.600000 0.000000
3.900000 0.600000 0.000000
4.000000 0.600000 0.000000
0.000000 0.700000 0.000000
0.100000 0.700000 0.000000
0.200000 0.700000 0.000000
0.300000 0.700000 0.000000
0.400000 0.700000 0.000000
0.500000 0.700000 0.000000
0.600000 0.700000 0.000000
0.700000 0.700000 0.000000
0.800000 0.700000 0.000000
0.900000 0.700000 0.000000
1.000000 0.700000 0.000000
1.100000 0.700000 0.000000
1.200000 0.700000 0.000000
1.300000 0.700000 0.000000
1.400000 0.700000 0.000000
1.500000 0.700000 0.000000
1.600000 0.700000 0.000000
1.700000 0.700000 0.000000
1.800000 0.700000 0.000000
1.900000 0.700000 0.000000
2.000000 0.700000 0.000000
2.100000 0.700000 0.000000
2.200000 0.700000 0.000000
2.300000 0.700000 0.000000
2.400000 0.700000 0.000000
2.500000 0.700000 0.000000
2.600000 0.700000 0.000000
2.700000 0.700000 0.000000
2.800000 0.700000 0.000000
2.900000 0.700000 0.000000
3.000000 0.700000 0.000000
3.100000 0.700000 0.000000
3.200000 0.700000 0.000000
3.300000 0.700000 0.000000
3.400000 0.700000 0.000000
3.500000 0.700000 0.000000
3.600000 0.700000 0.000000
3.700000 0.700000 0.000000
3.800000 0.700000 0.000000
3.900000 0.700000 0.000000
4.000000 0.700000 0.000000
0.000000 0.800000 0.000000
0.100000 0.800000 0.000000
0.200000 0.800000 0.000000
0.300000 0.800000 0.000000
0.400000 0.800000 0.000000
0.500000 0.800000 0.000000
0.600000 0.800000 0.000000
0.700000 0.800000 0.000000
0.800000 0.800000 0.000000
0.900000 0.800000 0.000000
1.000000 0.800000 0.000000
1.100000 0.800000 0.000000
1.200000 0.800000 0.000000
1.300000 0.800000 0.000000
1.400000 0.800000 0.000000
1.500000 0.800000 0.000000
1.600000 0.800000 0.000000
1.700000 0.800000 0.000000
1.800000 0.800000 0.000000
1.900000 0.800000 0.000000
2.000000 0.800000 0.000000
2.100000 0.800000 0.000000
2.200000 0.800000 0.000000
2.300000 0.800000 0.000000
2.400000 0.800000 0.000000
2.500000 0.800000 0.000000
2.600000 0.800000 0.000000
2.700000 0.800000 0.000000
2.800000 0.800000 0.000000
2.900000 0.800000 0.000000
3.000000 0.800000 0.000000
3.100000 0.800000 0.000000
3.200000 0.800000 0.000000
3.300000 0.800000 0.000000
3.400000 0.800000 0.000000
3.500000 0.800000 0.000000
3.600000 0.800000 0.000000
[...]
CELL_DATA 16000
SCALARS pressure float 1
LOOKUP_TABLE default
34.6323
34.4554
34.1184
33.6549
33.0905
32.4417
31.7162
30.9152
30.0349
29.0692
28.0124
26.8619
25.622
24.3053
22.9333
21.5347
20.1412
18.7831
17.4847
16.2618
15.1214
14.0626
13.079
12.1607
11.2967
10.476
9.68865
8.92626
8.18208
7.45084
6.72859
6.01242
5.30028
4.59072
3.88278
3.17582
2.46943
1.76341
1.05767
0.352288
34.688
34.4856
34.1346
33.6634
33.0949
32.444
31.7176
30.9165
30.0366
29.0717
28.0155
26.8654
25.6253
24.3076
22.9342
21.5338
20.1389
18.7798
17.4809
16.2583
15.1185
14.0605
13.0778
12.1603
11.2968
10.4764
9.68928
8.92697
8.18278
7.45149
6.72915
6.01289
5.30066
4.59102
3.88302
3.176
2.46956
1.76349
1.0577
0.35224
34.8082
34.5691
34.194
33.7074
33.1301
32.475
31.748
30.9488
30.0722
29.1105
28.056
26.9046
25.6589
24.3315
22.9448
21.5297
20.1209
18.7511
17.4458
16.221
15.0825
14.0283
13.0506
12.1384
11.2799
10.4639
9.6802
8.92063
8.17848
7.44866
6.72736
6.0118
5.30003
4.59069
3.88287
3.17594
2.46955
1.76348
1.05765
0.352143
34.9712
34.6899
34.2849
33.7787
33.19
32.5303
31.8041
31.0093
30.1392
29.1835
28.132
26.9777
25.7214
24.375
22.9632
21.5204
20.086
18.6963
17.3791
16.1503
15.0145
13.9674
12.999
12.0967
11.2475
10.4395
9.66247
8.90805
8.16979
7.44281
6.72352
6.00937
5.29854
4.58982
3.88238
3.17569
2.46942
1.7634
1.05757
0.352057
35.1559
34.8326
34.396
33.8688
33.2685
32.6051
31.8815
31.0942
30.2339
29.2873
28.2402
27.0819
25.8101
24.4364
22.988
21.505
20.0335
18.6158
17.2821
16.0485
14.9172
13.8806
12.9259
12.0378
11.2019
10.4053
9.6375
8.89032
8.15751
7.4345
6.71804
6.00584
5.29635
4.5885
3.88163
3.17528
2.46921
1.76328
1.05749
0.352005
35.3431
34.9815
34.5153
33.9682
33.3574
32.6918
31.9732
31.196
30.3485
29.4138
28.3729
27.2101
25.9194
24.5116
23.0172
21.4837
19.9662
18.5139
17.1609
15.9224
14.7977
13.775
12.8374
11.9669
11.1472
10.3644
9.60776
8.86923
8.1429
7.42462
6.71151
6.00164
5.29372
4.58691
3.8807
3.17478
2.46895
1.76315
1.05743
0.351987
35.5156
35.1219
34.6302
34.0661
33.4468
32.7808
32.0687
31.3035
30.4708
29.5498
28.5166
27.3497
26.0388
24.5935
23.0482
21.4586
19.8904
18.4009
17.0276
15.7851
14.6687
13.6618
12.7433
11.8921
11.0897
10.3215
9.57672
8.84728
8.12773
7.41437
6.70474
5.99728
5.29098
4.58526
3.87974
3.17425
2.46868
1.76303
1.05739
0.351997
35.6589
35.2404
34.7287
34.1514
33.5261
32.8609
32.1559
31.4027
30.5847
29.6775
28.6525
27.4828
26.1532
24.672
23.0773
21.4334
19.8163
18.2916
16.9
15.6548
14.5473
13.5562
12.6561
11.823
11.0369
10.2824
9.54844
8.82733
8.11398
7.40509
6.69862
5.99333
5.28851
4.58376
3.87887
3.17377
2.46844
1.76293
1.05737
0.352023
35.7612
35.3259
34.8007
34.2145
33.5854
32.9216
32.2227
31.4793
30.6732
29.7775
28.7597
27.5882
26.2443
24.7347
23.1004
21.4126
19.7565
18.2041
16.7986
15.5521
14.4523
13.474
12.5886
11.7698
10.9964
10.2525
9.52691
8.81218
8.10355
7.39806
6.69399
5.99036
5.28665
4.58263
3.87822
3.17341
2.46826
1.76286
1.05736
0.35205
35.8145
35.3708
34.8386
34.248
33.6172
32.9544
32.2589
31.521
30.7217
29.8325
28.8189
27.6468
26.2951
24.7697
23.1132
21.4009
19.7229
18.1551
16.7423
15.4954
14.4001
13.429
12.5518
11.741
10.9745
10.2364
9.51531
8.80404
8.09795
7.3943
6.69152
5.98877
5.28566
4.58203
3.87787
3.17322
2.46817
1.76282
1.05736
0.352067
35.8146
35.3708
34.8387
34.2481
33.6172
32.9544
32.2589
31.5211
30.7217
29.8326
28.8189
27.6468
26.2951
24.7697
23.1132
21.4009
19.723
18.1552
16.7424
15.4955
14.4002
13.4292
12.5519
11.7411
10.9746
10.2365
9.5154
8.80411
8.09801
7.39435
6.69156
5.9888
5.28569
4.58205
3.87789
3.17323
2.46818
1.76283
1.05736
0.352068
35.7613
35.326
34.8007
34.2146
33.5855
32.9217
32.2227
31.4794
30.6733
29.7776
28.7597
27.5882
26.2442
24.7346
23.1004
21.4127
19.7566
18.2043
16.799
15.5525
14.4527
13.4744
12.589
11.7702
10.9968
10.2528
9.52717
8.8124
8.10373
7.39821
6.69411
5.99045
5.28672
4.58268
3.87826
3.17344
2.46828
1.76287
1.05736
0.352053
35.659
35.2405
34.7288
34.1515
33.5262
32.861
32.1561
31.4029
30.5848
29.6776
28.6526
27.4827
26.1531
24.6719
23.0773
21.4335
19.8165
18.292
16.9005
15.6555
14.548
13.5569
12.6567
11.8236
11.0374
10.2829
9.54886
8.82768
8.11426
7.40532
6.6988
5.99348
5.28862
4.58384
3.87893
3.17381
2.46847
1.76295
1.05737
0.352027
35.5157
35.122
34.6303
34.0662
33.4469
32.7809
32.0688
31.3036
30.4709
29.5499
28.5166
27.3497
26.0388
24.5934
23.0482
21.4588
19.8907
18.4014
17.0283
15.7859
14.6696
13.6627
12.7442
11.8929
11.0904
10.3222
9.57726
8.84773
8.12811
7.41467
6.70499
5.99747
5.29113
4.58536
3.87982
3.1743
2.46872
1.76305
1.0574
0.352002
35.3432
34.9816
34.5154
33.9684
33.3575
32.692
31.9733
31.1962
30.3487
29.4139
28.373
27.2101
25.9194
24.5116
23.0173
21.4839
19.9666
18.5146
17.1617
15.9234
14.7987
13.776
12.8384
11.9679
11.148
10.3651
9.6084
8.86977
8.14335
7.42498
6.7118
6.00186
5.29389
4.58704
3.8808
3.17484
2.46899
1.76318
1.05744
0.351992
35.1561
34.8327
34.3962
33.869
33.2686
32.6052
31.8817
31.0944
30.234
29.2874
28.2403
27.0819
25.8101
24.4365
22.9881
21.5053
20.0341
18.6165
17.2831
16.0496
14.9183
13.8818
12.927
12.0389
11.2028
10.4061
9.63821
8.89092
8.158
7.4349
6.71836
6.00609
5.29653
4.58864
3.88172
3.17535
2.46925
1.76331
1.0575
0.352009
34.9714
34.6901
34.285
33.7788
33.1902
32.5305
31.8043
31.0095
30.1393
29.1836
28.1321
26.9777
25.7214
24.3751
22.9634
21.5208
20.0866
18.6972
17.3802
16.1515
15.0157
13.9686
13.0002
12.0978
11.2485
10.4404
9.66322
8.90868
8.17031
7.44323
6.72386
6.00962
5.29873
4.58996
3.88248
3.17576
2.46946
1.76342
1.05758
0.35206
34.8084
34.5693
34.1942
33.7076
33.1302
32.4751
31.7482
30.9489
30.0723
29.1106
28.0561
26.9046
25.659
24.3316
22.945
21.5301
20.1216
18.752
17.4469
16.2221
15.0837
14.0296
13.0518
12.1395
11.2809
10.4647
9.68096
8.92126
8.179
7.44908
6.72768
6.01205
5.30022
4.59083
3.88296
3.176
2.46959
1.76349
1.05765
0.352143
34.6881
34.4857
34.1348
33.6636
33.0951
32.4442
31.7178
30.9166
30.0368
29.0718
28.0156
26.8655
25.6254
24.3078
22.9345
21.5343
20.1395
18.7806
17.482
16.2594
15.1197
14.0617
13.0789
12.1613
11.2978
10.4773
9.69002
8.92759
8.18329
7.45189
6.72946
6.01313
5.30083
4.59115
3.8831
3.17605
2.46959
1.7635
1.0577
0.352238
34.6325
34.4556
34.1186
33.655
33.0907
32.4419
31.7164
30.9154
30.035
29.0694
28.0125
26.862
25.6222
24.3055
22.9336
21.5352
20.1419
18.784
17.4857
16.2629
15.1225
14.0637
13.0801
12.1618
11.2977
10.4768
9.68936
8.92686
8.18257
7.45123
6.72889
6.01265
5.30044
4.59084
3.88286
3.17586
2.46945
1.76341
1.05766
0.352282
34.688
34.4856
34.1346
33.6634
33.0949
32.444
31.7176
30.9165
30.0366
29.0717
28.0155
26.8654
25.6252
24.3076
22.9342
21.5338
20.1389
18.7798
17.481
16.2583
15.1185
14.0605
13.0778
12.1603
11.2968
10.4765
9.68929
8.92698
8.18279
7.45149
6.72915
6.01289
5.30066
4.59102
3.88302
3.176
2.46956
1.76349
1.0577
0.35224
34.7316
34.4909
34.1211
33.6411
33.0684
32.4147
31.6859
30.8824
30.0004
29.0342
27.9784
26.8309
25.5962
24.2867
22.9234
21.5341
20.1499
18.7999
17.5079
16.2891
15.1505
14.0915
13.1061
12.1851
11.3178
10.4936
9.70295
8.9376
8.19088
7.45754
6.73359
6.01611
5.30295
4.59264
3.88414
3.17678
2.47011
1.76387
1.05796
0.352314
34.8479
34.5611
34.1625
33.665
33.0821
32.4228
31.6915
30.8875
30.0063
29.0414
27.9867
26.8396
25.6038
24.2916
22.9245
21.5309
20.1428
18.7905
17.4976
16.2794
15.1425
14.0856
13.1024
12.1832
11.3174
10.4942
9.7041
8.93904
8.19239
7.45897
6.73488
6.0172
5.30386
4.59337
3.88471
3.17722
2.47044
1.76411
1.05808
0.352296
35.014
34.6755
34.2425
33.723
33.1269
32.461
31.728
30.9256
30.0479
29.0866
28.0338
26.8849
25.6421
24.3176
22.9341
21.5226
20.1183
18.7537
17.4539
16.2341
15.0997
14.048
13.0713
12.1587
11.2989
10.4808
9.69475
8.93278
8.18837
7.45653
6.73349
6.0165
5.30357
4.59333
3.8848
3.17736
2.47058
1.76422
1.05814
0.352279
35.2057
34.8153
34.3467
33.8038
33.1938
32.5218
31.7885
30.9902
30.1186
29.1632
28.113
26.9605
25.7058
24.3607
22.9499
21.5087
20.0773
18.6925
17.3812
16.1584
15.0278
13.9843
13.0178
12.1159
11.2659
10.4563
9.67714
8.92047
8.18002
7.45104
6.73001
6.01438
5.30235
4.59268
3.88451
3.17726
2.47058
1.76426
1.05817
0.35229
35.401
34.9632
34.4611
33.8959
33.2731
32.5963
31.8646
31.0724
30.2095
29.262
28.2155
27.0584
25.7883
24.4162
22.9697
21.4895
20.023
18.6121
17.2864
16.0603
14.9349
13.9022
12.9491
12.0608
11.2234
10.4245
9.6541
8.90422
8.16886
7.44357
6.72515
6.01133
5.30051
4.59162
3.88394
3.177
2.47049
1.76424
1.05819
0.352329
35.5814
35.1033
34.5722
33.9878
33.3544
32.6743
31.9457
31.1613
30.3085
29.3704
28.3286
27.1672
25.8802
24.478
22.9911
21.467
19.9612
18.5217
17.1807
15.9517
14.8329
13.8125
12.8743
12.001
11.1773
10.3901
9.62911
8.88654
8.15666
7.43537
6.71978
6.00791
5.29841
4.59039
3.88326
3.17665
2.47034
1.7642
1.05821
0.35239
35.7312
35.2217
34.6679
34.0684
33.427
32.7453
32.0206
31.2441
30.4016
29.4731
28.4365
27.2717
25.969
24.5379
23.0116
21.4445
19.9005
18.4338
17.079
15.8481
14.7363
13.7281
12.8042
11.9453
11.1345
10.3582
9.60594
8.87015
8.14534
7.42773
6.71476
6.00469
5.29642
4.58921
3.88259
3.17631
2.47018
1.76416
1.05823
0.352456
35.8382
35.3072
34.7379
34.1281
33.4815
32.7993
32.078
31.3083
30.4741
29.5537
28.5218
27.3548
26.0402
24.586
23.028
21.426
19.8513
18.3633
16.998
15.7663
14.6605
13.6623
12.7499
11.9022
11.1014
10.3336
9.58815
8.85757
8.13666
7.42188
6.7109
6.00223
5.29489
4.58829
3.88207
3.17603
2.47006
1.76412
1.05825
0.352512
35.8938
35.3521
34.7748
34.1599
33.5107
32.8284
32.1092
31.3432
30.5139
29.5981
28.569
27.4011
26.08
24.613
23.0371
21.4155
19.8236
18.3238
16.953
15.7211
14.6189
13.6263
12.7202
11.8788
11.0835
10.3203
9.57853
8.85078
8.13198
7.41872
6.70883
6.0009
5.29406
4.5878
3.8818
3.17589
2.47
1.76411
1.05826
0.352544
35.8938
35.3521
34.7748
34.1599
33.5107
32.8284
32.1092
31.3433
30.5139
29.5982
28.569
27.4011
26.08
24.613
23.0371
21.4155
19.8236
18.3239
16.9531
15.7212
14.619
13.6265
12.7204
11.8789
11.0836
10.3204
9.57861
8.85085
8.13203
7.41877
6.70887
6.00093
5.29409
4.58782
3.88181
3.1759
2.47
1.76411
1.05826
0.352544
35.8382
35.3073
34.7379
34.1282
33.4816
32.7993
32.0781
31.3083
30.4742
29.5538
28.5218
27.3548
26.0401
24.586
23.028
21.4261
19.8514
18.3635
16.9983
15.7667
14.6609
13.6627
12.7503
11.9025
11.1018
10.3339
9.58839
8.85777
8.13682
7.42201
6.71101
6.00231
5.29495
4.58834
3.88211
3.17606
2.47008
1.76413
1.05825
0.352512
35.7313
35.2218
34.668
34.0685
33.4271
32.7454
32.0207
31.2442
30.4017
29.4732
28.4365
27.2717
25.969
24.5378
23.0117
21.4447
19.9007
18.4342
17.0794
15.8487
14.7369
13.7288
12.8048
11.9458
11.135
10.3586
9.60632
8.87047
8.14561
7.42795
6.71493
6.00483
5.29653
4.58929
3.88265
3.17635
2.47021
1.76417
1.05823
0.352456
35.5815
35.1034
34.5723
33.9879
33.3545
32.6745
31.9459
31.1614
30.3086
29.3706
28.3286
27.1672
25.8802
24.478
22.9912
21.4672
19.9615
18.5222
17.1814
15.9525
14.8337
13.8133
12.875
12.0018
11.178
10.3907
9.62962
8.88697
8.15701
7.43566
6.72001
6.00809
5.29855
4.59049
3.88334
3.1767
2.47037
1.76422
1.05821
0.352389
35.4012
34.9633
34.4612
33.896
33.2733
32.5964
31.8647
31.0726
30.2096
29.2622
28.2156
27.0585
25.7883
24.4163
22.9698
21.4898
20.0234
18.6128
17.2872
16.0612
14.9359
13.9032
12.95
12.0617
11.2242
10.4252
9.6547
8.90473
8.16928
7.44392
6.72543
6.01154
5.30068
4.59175
3.88403
3.17706
2.47052
1.76426
1.05819
0.352328
35.2059
34.8155
34.3469
33.8039
33.1939
32.522
31.7887
30.9903
30.1188
29.1634
28.1132
26.9606
25.7059
24.3608
22.9501
21.509
20.0778
18.6932
17.3821
16.1594
15.0288
13.9853
13.0189
12.1169
11.2668
10.4571
9.67781
8.92104
8.18049
7.45142
6.73031
6.01462
5.30254
4.59282
3.8846
3.17733
2.47062
1.76427
1.05817
0.352288
35.0142
34.6756
34.2427
33.7232
33.127
32.4612
31.7282
30.9258
30.0481
29.0868
28.0339
26.8849
25.6422
24.3178
22.9344
21.5231
20.1189
18.7545
17.4549
16.2352
15.1008
14.0492
13.0724
12.1597
11.2998
10.4816
9.69546
8.93338
8.18886
7.45693
6.73381
6.01674
5.30376
4.59347
3.8849
3.17742
2.47062
1.76424
1.05814
0.352277
34.848
34.5613
34.1626
33.6652
33.0822
32.423
31.6917
30.8877
30.0064
29.0415
27.9868
26.8397
25.604
24.2918
22.9248
21.5313
20.1435
18.7913
17.4985
16.2805
15.1436
14.0868
13.1035
12.1843
11.3183
10.495
9.70482
8.93965
8.19289
7.45938
6.73519
6.01745
5.30404
4.5935
3.8848
3.17728
2.47047
1.76412
1.05808
0.352293
34.7318
34.4911
34.1213
33.6413
33.0686
32.4149
31.6861
30.8826
30.0006
29.0343
27.9785
26.8311
25.5963
24.2869
22.9237
21.5346
20.1505
18.8008
17.5088
16.2902
15.1516
14.0926
13.1072
12.1861
11.3187
10.4944
9.70365
8.93819
8.19137
7.45793
6.7339
6.01634
5.30312
4.59276
3.88422
3.17683
2.47013
1.76388
1.05795
0.352309
34.6881
34.4857
34.1348
33.6636
33.0951
32.4442
31.7178
30.9167
30.0368
29.0718
28.0156
26.8655
25.6254
24.3078
22.9345
21.5343
20.1395
18.7806
17.4819
16.2594
15.1196
14.0617
13.0789
12.1613
11.2977
10.4772
9.68996
8.92754
8.18325
7.45186
6.72943
6.0131
5.30081
4.59113
3.88309
3.17604
2.46958
1.76349
1.05769
0.352231
34.8082
34.5691
34.194
33.7074
33.13
32.475
31.748
30.9488
30.0722
29.1104
28.056
26.9045
25.6589
24.3314
22.9447
21.5296
20.1209
18.7511
17.4459
16.221
15.0826
14.0284
13.0506
12.1384
11.2799
10.4639
9.68022
8.92064
8.17849
7.44867
6.72736
6.0118
5.30004
4.5907
3.88287
3.17595
2.46955
1.76348
1.05765
0.352143
34.8479
34.5611
34.1625
33.665
33.0821
32.4228
31.6915
30.8875
30.0063
29.0414
27.9867
26.8396
25.6038
24.2916
22.9244
21.5308
20.1428
18.7905
17.4976
16.2794
15.1425
14.0856
13.1024
12.1833
11.3174
10.4942
9.70411
8.93905
8.19239
7.45898
6.73488
6.0172
5.30386
4.59337
3.88471
3.17722
2.47044
1.76411
1.05808
0.352296
34.9599
34.6224
34.191
33.6736
33.0787
32.4123
31.6767
30.8703
29.9881
29.0234
27.97
26.825
25.5917
24.2823
22.9181
21.5277
20.1433
18.7949
17.5059
16.2911
15.1565
14.101
13.1179
12.1981
11.3308
10.506
9.71409
8.94727
8.199
7.46418
6.7389
6.02026
5.30615
4.59506
3.88596
3.17812
2.47109
1.76456
1.05835
0.352328
35.1264
34.7322
34.2628
33.7208
33.1108
32.4362
31.6973
30.891
30.0111
29.0495
27.9983
26.8528
25.6152
24.2972
22.9211
21.5179
20.1225
18.7669
17.4751
16.2614
15.1306
14.0801
13.1023
12.1872
11.3238
10.5019
9.71215
8.94672
8.1993
7.46494
6.73985
6.02124
5.30707
4.59587
3.88663
3.17867
2.47152
1.76487
1.05853
0.352358
35.3225
34.871
34.3621
33.7942
33.1685
32.4862
31.7456
30.9421
30.0676
29.1116
28.0635
26.9158
25.668
24.3314
22.9304
21.5005
20.0816
18.7097
17.4103
16.1967
15.0715
14.0296
13.0615
12.1557
11.3006
10.4854
9.70083
8.93928
8.19464
7.46219
6.73837
6.02057
5.30687
4.59595
3.88685
3.17893
2.47176
1.76507
1.05867
0.352422
35.525
35.0201
34.474
33.8814
33.2412
32.5525
31.8123
31.0141
30.1476
29.1998
28.1563
27.0053
25.7433
24.3803
22.9438
21.4757
20.0236
18.629
17.3191
16.1058
14.9883
13.9583
13.0034
12.1103
11.2663
10.4604
9.6832
8.9272
8.18663
7.45706
6.73522
6.01874
5.3059
4.5955
3.88671
3.17896
2.47187
1.7652
1.05879
0.35252
35.7132
35.1625
34.5841
33.97
33.3176
32.6246
31.8865
31.0953
30.239
29.3013
28.2638
27.1101
25.8321
24.4383
22.9595
21.4458
19.9546
18.534
17.2131
16.0011
14.8932
13.877
12.9373
12.0586
11.2273
10.4318
9.66281
8.91307
8.17709
7.45081
6.73127
6.01634
5.30452
4.59477
3.88638
3.17886
2.4719
1.76529
1.0589
0.352638
35.8702
35.2835
34.6795
34.0486
33.387
32.6913
31.9563
31.1729
30.3271
29.4002
28.3698
27.2147
25.9218
24.4974
22.9754
21.4148
19.884
18.4383
17.1078
15.8984
14.801
13.799
12.8741
12.0094
11.1902
10.4046
9.64334
8.89951
8.16789
7.44474
6.72738
6.01393
5.3031
4.59399
3.88599
3.17871
2.47188
1.76534
1.05898
0.352757
35.9826
35.3711
34.7495
34.1071
33.4394
32.7425
32.0106
31.2338
30.3969
29.4793
28.4557
27.3005
25.9964
24.5472
22.9888
21.3885
19.8247
18.3591
17.0219
15.8159
14.7276
13.7373
12.8245
11.9709
11.1612
10.3833
9.62818
8.88894
8.1607
7.43997
6.72431
6.01202
5.30196
4.59335
3.88566
3.17856
2.47184
1.76536
1.05905
0.352852
36.0412
35.4171
34.7865
34.1383
33.4675
32.7702
32.0402
31.2672
30.4355
29.5234
28.5039
27.3492
26.0393
24.5762
22.9966
21.3732
19.7904
18.3137
16.9734
15.7697
14.6869
13.7034
12.7973
11.9499
11.1454
10.3718
9.61993
8.8832
8.1568
7.43739
6.72264
6.01098
5.30134
4.59299
3.88548
3.17849
2.47183
1.76538
1.05908
0.352904
36.0412
35.4171
34.7865
34.1383
33.4676
32.7703
32.0402
31.2672
30.4355
29.5234
28.5039
27.3492
26.0393
24.5761
22.9966
21.3732
19.7904
18.3138
16.9735
15.7699
14.6871
13.7035
12.7975
11.95
11.1455
10.3719
9.62001
8.88326
8.15685
7.43743
6.72268
6.01101
5.30136
4.59301
3.88549
3.17849
2.47183
1.76538
1.05908
0.352903
35.9827
35.3712
34.7495
34.1072
33.4394
32.7426
32.0106
31.2338
30.397
29.4793
28.4557
27.3005
25.9963
24.5471
22.9888
21.3886
19.8249
18.3593
17.0222
15.8163
14.728
13.7377
12.8249
11.9712
11.1615
10.3836
9.62841
8.88913
8.16086
7.4401
6.72441
6.0121
5.30202
4.59339
3.8857
3.17859
2.47186
1.76537
1.05905
0.352849
35.8703
35.2836
34.6795
34.0487
33.3871
32.6914
31.9564
31.173
30.3272
29.4002
28.3699
27.2147
25.9217
24.4974
22.9754
21.415
19.8843
18.4387
17.1083
15.899
14.8016
13.7996
12.8747
12.0099
11.1906
10.405
9.64371
8.89982
8.16815
7.44495
6.72755
6.01407
5.3032
4.59406
3.88605
3.17874
2.4719
1.76535
1.05899
0.352753
35.7133
35.1626
34.5842
33.9702
33.3178
32.6247
31.8866
31.0955
30.2391
29.3014
28.2639
27.1102
25.8321
24.4383
22.9596
21.446
19.955
18.5346
17.2137
16.0018
14.894
13.8778
12.938
12.0593
11.228
10.4324
9.6633
8.91348
8.17743
7.45109
6.73149
6.01652
5.30466
4.59487
3.88645
3.17891
2.47193
1.76531
1.0589
0.352633
35.5251
35.0203
34.4741
33.8815
33.2413
32.5527
31.8125
31.0142
30.1478
29.2
28.1564
27.0054
25.7433
24.3804
22.944
21.476
20.0241
18.6296
17.3199
16.1066
14.9892
13.9592
13.0042
12.1111
11.2671
10.4611
9.68378
8.92769
8.18703
7.45739
6.73549
6.01895
5.30606
4.59562
3.8868
3.17902
2.47191
1.76523
1.0588
0.352513
35.3227
34.8712
34.3623
33.7943
33.1687
32.4863
31.7458
30.9423
30.0677
29.1118
28.0637
26.9159
25.6681
24.3315
22.9306
21.5008
20.0822
18.7104
17.4111
16.1976
15.0725
14.0306
13.0625
12.1567
11.3014
10.4861
9.70147
8.93983
8.19509
7.46256
6.73867
6.0208
5.30705
4.59608
3.88694
3.17899
2.4718
1.7651
1.05868
0.352414
35.1265
34.7324
34.2629
33.7209
33.111
32.4364
31.6975
30.8912
30.0113
29.0496
27.9984
26.8529
25.6153
24.2973
22.9213
21.5183
20.1231
18.7676
17.476
16.2624
15.1317
14.0812
13.1034
12.1882
11.3247
10.5027
9.71284
8.9473
8.19978
7.46533
6.74016
6.02148
5.30725
4.596
3.88673
3.17873
2.47156
1.76489
1.05853
0.35235
34.9601
34.6226
34.1912
33.6738
33.0789
32.4125
31.6769
30.8705
29.9883
29.0236
27.9702
26.8251
25.5918
24.2825
22.9183
21.5281
20.1439
18.7957
17.5068
16.2921
15.1577
14.1021
13.119
12.1991
11.3318
10.5068
9.71479
8.94786
8.19948
7.46457
6.73921
6.0205
5.30632
4.59519
3.88604
3.17818
2.47112
1.76457
1.05835
0.352318
34.8481
34.5613
34.1626
33.6652
33.0822
32.423
31.6917
30.8877
30.0064
29.0415
27.9868
26.8397
25.6039
24.2918
22.9247
21.5313
20.1435
18.7913
17.4986
16.2806
15.1437
14.0868
13.1035
12.1843
11.3183
10.495
9.7048
8.93963
8.19286
7.45935
6.73517
6.01742
5.30402
4.59348
3.88479
3.17726
2.47046
1.76411
1.05807
0.352286
34.8084
34.5693
34.1942
33.7076
33.1302
32.4752
31.7482
30.949
30.0724
29.1106
28.0561
26.9046
25.659
24.3316
22.945
21.5301
20.1216
18.752
17.4469
16.2221
15.0837
14.0295
13.0517
12.1394
11.2808
10.4646
9.68088
8.92118
8.17893
7.44901
6.72762
6.012
5.30017
4.59079
3.88292
3.17597
2.46956
1.76347
1.05763
0.352126
34.9712
34.6899
34.2849
33.7787
33.19
32.5303
31.8041
31.0093
30.1391
29.1834
28.1319
26.9775
25.7212
24.3749
22.9631
21.5203
20.0859
18.6964
17.3792
16.1504
15.0146
13.9675
12.9991
12.0968
11.2476
10.4396
9.6625
8.90807
8.16981
7.44282
6.72353
6.00937
5.29854
4.58982
3.88238
3.17569
2.46943
1.7634
1.05757
0.352058
35.014
34.6755
34.2425
33.723
33.1268
32.461
31.728
30.9256
30.0479
29.0866
28.0337
26.8847
25.642
24.3175
22.9341
21.5226
20.1183
18.7537
17.454
16.2342
15.0998
14.0481
13.0713
12.1588
11.2989
10.4808
9.69478
8.9328
8.18838
7.45653
6.73349
6.0165
5.30358
4.59333
3.8848
3.17736
2.47058
1.76422
1.05814
0.35228
35.1264
34.7322
34.2628
33.7208
33.1108
32.4362
31.6973
30.891
30.0111
29.0494
27.9982
26.8527
25.6151
24.2971
22.921
21.5179
20.1225
18.7669
17.4751
16.2614
15.1306
14.0801
13.1023
12.1872
11.3239
10.5019
9.71216
8.94673
8.19931
7.46494
6.73986
6.02124
5.30707
4.59587
3.88663
3.17867
2.47152
1.76487
1.05853
0.352358