# vtk DataFile Version 2.0
I need something to put here
ASCII

DATASET STRUCTURED_GRID
DIMENSIONS 41 21 21
POINTS 18081 float
0.000000 0.000000 0.000000
0.100000 0.000000 0.000000
0.200000 0.000000 0.000000
0.300000 0.000000 0.000000
0.400000 0.000000 0.000000
0.500000 0.000000 0.000000
0.600000 0.000000 0.000000
0.700000 0.000000 0.000000
0.800000 0.000000 0.000000
0.900000 0.000000 0.000000
1.000000 0.000000 0.000000
1.100000 0.000000 0.000000
1.200000 0.000000 0.000000
1.300000 0.000000 0.000000
1.400000 0.000000 0.000000
1.500000 0.000000 0.000000
1.600000 0.000000 0.000000
1.700000 0.000000 0.000000
1.800000 0.000000 0.000000
1.900000 0.000000 0.000000
2.000000 0.000000 0.000000
2.100000 0.000000 0.000000
2.200000 0.000000 0.000000
2.300000 0.000000 0.000000
2.400000 0.000000 0.000000
2.500000 0.000000 0.000000
2.600000 0.000000 0.000000
2.700000 0.000000 0.000000
2.800000 0.000000 0.000000
2.900000 0.000000 0.000000
3.000000 0.000000 0.000000
3.100000 0.000000 0.000000
3.200000 0.000000 0.000000
3.300000 0.000000 0.000000
3.400000 0.000000 0.000000
3.500000 0.000000 0.000000
3.600000 0.000000 0.000000
3.700000 0.000000 0.000000
3.800000 0.000000 0.000000
3.900000 0.000000 0.000000
4.000000 0.000000 0.000000
0.000000 0.100000 0.000000
0.100000 0.100000 0.000000
0.200000 0.100000 0.000000
0.300000 0.100000 0.000000
0.400000 0.100000 0.000000
0.500000 0.100000 0.000000
0.600000 0.100000 0.000000
0.700000 0.100000 0.000000
0.800000 0.100000 0.000000
0.900000 0.100000 0.000000
1.000000 0.100000 0.000000
1.100000 0.100000 0.000000
1.200000 0.100000 0.000000
1.300000 0.100000 0.000000
1.400000 0.100000 0.000000
1.500000 0.100000 0.000000
1.600000 0.100000 0.000000
1.700000 0.100000 0.000000
1.800000 0.100000 0.000000
1.900000 0.100000 0.000000
2.000000 0.100000 0.000000
2.100000 0.100000 0.000000
2.200000 0.100000 0.000000
2.300000 0.100000 0.000000
2.400000 0.100000 0.000000
2.500000 0.100000 0.000000
2.600000 0.100000 0.000000
2.700000 0.100000 0.000000
2.800000 0.100000 0.000000
2.900000 0.100000 0.000000
3.000000 0.100000 0.000000
3.100000 0.100000 0.000000
3.200000 0.100000 0.000000
3.300000 0.100000 0.000000
3.400000 0.100000 0.000000
3.500000 0.100000 0.000000
3.600000 0.100000 0.000000
3.700000 0.100000 0.000000
3.800000 0.100000 0.000000
3.900000 0.100000 0.000000
4.000000 0.100000 0.000000
0.000000 0.200000 0.000000
0.100000 0.200000 0.000000
0.200000 0.200000 0.000000
0.300000 0.200000 0.000000
0.400000 0.200000 0.000000
0.500000 0.200000 0.000000
0.600000 0.200000 0.000000
0.700000 0.200000 0.000000
0.800000 0.200000 0.000000
0.900000 0.200000 0.000000
1.000000 0.200000 0.000000
1.100000 0.200000 0.000000
1.200000 0.200000 0.000000
1.300000 0.200000 0.000000
1.400000 0.200000 0.000000
1.500000 0.200000 0.000000
1.600000 0.200000 0.000000
1.700000 0.200000 0.000000
1.800000 0.200000 0.000000
1.900000 0.200000 0.000000
2.000000 0.200000 0.000000
2.100000 0.200000 0.000000
2.200000 0.200000 0.000000
2.300000 0.200000 0.000000
2.400000 0.200000 0.000000
2.500000 0.200000 0.000000
2.600000 0.200000 0.000000
2.700000 0.200000 0.000000
2.800000 0.200000 0.000000
2.900000 0.200000 0.000000
3.000000 0.200000 0.000000
3.100000 0.200000 0.000000
3.200000 0.200000 0.000000
3.300000 0.200000 0.000000
3.400000 0.200000 0.000000
3.500000 0.200000 0.000000
3.600000 0.200000 0.000000
3.700000 0.200000 0.000000
3.800000 0.200000 0.000000
3.900000 0.200000 0.000000
4.000000 0.200000 0.000000
0.000000 0.300000 0.000000
0.100000 0.300000 0.000000
0.200000 0.300000 0.000000
0.300000 0.300000 0.000000
0.400000 0.300000 0.000000
0.500000 0.300000 0.000000
0.600000 0.300000 0.000000
0.700000 0.300000 0.000000
0.800000 0.300000 0.000000
0.900000 0.300000 0.000000
1.000000 0.300000 0.000000
1.100000 0.300000 0.000000
1.200000 0.300000 0.000000
1.300000 0.300000 0.000000
1.400000 0.300000 0.000000
1.500000 0.300000 0.000000
1.600000 0.300000 0.000000
1.700000 0.300000 0.000000
1.800000 0.300000 0.000000
1.900000 0.300000 0.000000
2.000000 0.300000 0.000000
2.100000 0.300000 0.000000
2.200000 0.300000 0.000000
2.300000 0.300000 0.000000
2.400000 0.300000 0.000000
2.500000 0.300000 0.000000
2.600000 0.300000 0.000000
2.700000 0.300000 0.000000
2.800000 0.300000 0.000000
2.900000 0.300000 0.000000
3.000000 0.300000 0.000000
3.100000 0.300000 0.000000
3.200000 0.300000 0.000000
3.300000 0.300000 0.000000
3.400000 0.300000 0.000000
3.500000 0.300000 0.000000
3.600000 0.300000 0.000000
3.700000 0.300000 0.000000
3.800000 0.300000 0.000000
3.900000 0.300000 0.000000
4.000000 0.300000 0.000000
0.000000 0.400000 0.000000
0.100000 0.400000 0.000000
0.200000 0.400000 0.000000
0.300000 0.400000 0.000000
0.400000 0.400000 0.000000
0.500000 0.400000 0.000000
0.600000 0.400000 0.000000
0.700000 0.400000 0.000000
0.800000 0.400000 0.000000
0.900000 0.400000 0.000000
1.000000 0.400000 0.000000
1.100000 0.400000 0.000000
1.200000 0.400000 0.000000
1.300000 0.400000 0.000000
1.400000 0.400000 0.000000
1.500000 0.400000 0.000000
1.600000 0.400000 0.000000
1.700000 0.400000 0.000000
1.800000 0.400000 0.000000
1.900000 0.400000 0.000000
2.000000 0.400000 0.000000
2.100000 0.400000 0.000000
2.200000 0.400000 0.000000
2.300000 0.400000 0.000000
2.400000 0.400000 0.000000
2.500000 0.400000 0.000000
2.600000 0.400000 0.000000
2.700000 0.400000 0.000000
2.800000 0.400000 0.000000
2.900000 0.400000 0.000000
3.000000 0.400000 0.000000
3.100000 0.400000 0.000000
3.200000 0.400000 0.000000
3.300000 0.400000 0.000000
3.400000 0.400000 0.000000
3.500000 0.400000 0.000000
3.600000 0.400000 0.000000
3.700000 0.400000 0.000000
3.800000 0.400000 0.000000
3.900000 0.400000 0.000000
4.000000 0.400000 0.000000
0.000000 0.500000 0.000000
0.100000 0.500000 0.000000
0.200000 0.500000 0.000000
0.300000 0.500000 0.000000
0.400000 0.500000 0.000000
0.500000 0.500000 0.000000
0.600000 0.500000 0.000000
0.700000 0.500000 0.000000
0.800000 0.500000 0.000000
0.900000 0.500000 0.000000
1.000000 0.500000 0.000000
1.100000 0.500000 0.000000
1.200000 0.500000 0.000000
1.300000 0.500000 0.000000
1.400000 0.500000 0.000000
1.500000 0.500000 0.000000
1.600000 0.500000 0.000000
1.700000 0.500000 0.000000
1.800000 0.500000 0.000000
1.900000 0.500000 0.000000
2.000000 0.500000 0.000000
2.100000 0.500000 0.000000
2.200000 0.500000 0.000000
2.300000 0.500000 0.000000
2.400000 0.500000 0.000000
2.500000 0.500000 0.000000
2.600000 0.500000 0.000000
2.700000 0.500000 0.000000
2.800000 0.500000 0.000000
2.900000 0.500000 0.000000
3.000000 0.500000 0.000000
3.100000 0.500000 0.000000
3.200000 0.500000 0.000000
3.300000 0.500000 0.000000
3.400000 0.500000 0.000000
3.500000 0.500000 0.000000
3.600000 0.500000 0.000000
3.700000 0.500000 0.000000
3.800000 0.500000 0.000000
3.900000 0.500000 0.000000
4.000000 0.500000 0.000000
0.000000 0.600000 0.000000
0.100000 0.600000 0.000000
0.200000 0.600000 0.000000
0.300000 0.600000 0.000000
0.400000 0.600000 0.000000
0.500000 0.600000 0.000000
0.600000 0.600000 0.000000
0.700000 0.600000 0.000000
0.800000 0.600000 0.000000
0.900000 0.600000 0.000000
1.000000 0.600000 0.000000
1.100000 0.600000 0.000000
1.200000 0.600000 0.000000
1.300000 0.600000 0.000000
1.400000 0.600000 0.000000
1.500000 0.600000 0.000000
1.600000 0.600000 0.000000
1.700000 0.600000 0.000000
1.800000 0.600000 0.000000
1.900000 0.600000 0.000000
2.000000 0.600000 0.000000
2.100000 0.600000 0.000000
2.200000 0.600000 0.000000
2.300000 0.600000 0.000000
2.400000 0.600000 0.000000
2.500000 0.600000 0.000000
2.600000 0.600000 0.000000
2.700000 0.600000 0.000000
2.800000 0.600000 0.000000
2.900000 0.600000 0.000000
3.000000 0.600000 0.000000
3.100000 0.600000 0.000000
3.200000 0.600000 0.000000
3.300000 0.600000 0.000000
3.400000 0.600000 0.000000
3.500000 0.600000 0.000000
3.600000 0.600000 0.000000
3.700000 0.600000 0.000000
3.800000 0.600000 0.000000
3.900000 0.600000 0.000000
4.000000 0.600000 0.000000
0.000000 0.700000 0.000000
0.100000 0.700000 0.000000
0.200000 0.700000 0.000000
0.300000 0.700000 0.000000
0.400000 0.700000 0.000000
0.500000 0.700000 0.000000
0.600000 0.700000 0.000000
0.700000 0.700000 0.000000
0.800000 0.700000 0.000000
0.900000 0.700000 0.000000
1.000000 0.700000 0.000000
1.100000 0.700000 0.000000
1.200000 0.700000 0.000000
1.300000 0.700000 0.000000
1.400000 0.700000 0.000000
1.500000 0.700000 0.000000
1.600000 0.700000 0.000000
1.700000 0.700000 0.000000
1.800000 0.700000 0.000000
1.900000 0.700000 0.000000
2.000000 0.700000 0.000000
2.100000 0.700000 0.000000
2.200000 0.700000 0.000000
2.300000 0.700000 0.000000
2.400000 0.700000 0.000000
2.500000 0.700000 0.000000
2.600000 0.700000 0.000000
2.700000 0.700000 0.000000
2.800000 0.700000 0.000000
2.900000 0.700000 0.000000
3.000000 0.700000 0.000000
3.100000 0.700000 0.000000
3.200000 0.700000 0.000000
3.300000 0.700000 0.000000
3.400000 0.700000 0.000000
3.500000 0.700000 0.000000
3.600000 0.700000 0.000000
3.700000 0.700000 0.000000
3.800000 0.700000 0.000000
3.900000 0.700000 0.000000
4.000000 0.700000 0.000000
0.000000 0.800000 0.000000
0.100000 0.800000 0.000000
0.200000 0.800000 0.000000
0.300000 0.800000 0.000000
0.400000 0.800000 0.000000
0.500000 0.800000 0.000000
0.600000 0.800000 0.000000
0.700000 0.800000 0.000000
0.800000 0.800000 0.000000
0.900000 0.800000 0.000000
1.000000 0.800000 0.000000
1.100000 0.800000 0.000000
1.200000 0.800000 0.000000
1.300000 0.800000 0.000000
1.400000 0.800000 0.000000
1.500000 0.800000 0.000000
1.600000 0.800000 0.000000
1.700000 0.800000 0.000000
1.800000 0.800000 0.000000
1.900000 0.800000 0.000000
2.000000 0.800000 0.000000
2.100000 0.800000 0.000000
2.200000 0.800000 0.000000
2.300000 0.800000 0.000000
2.400000 0.800000 0.000000
2.500000 0.800000 0.000000
2.600000 0.800000 0.000000
2.700000 0.800000 0.000000
2.800000 0.800000 0.000000
2.900000 0.800000 0.000000
3.000000 0.800000 0.000000
3.100000 0.800000 0.000000
3.200000 0.800000 0.000000
3.300000 0.800000 0.000000
3.400000 0.800000 0.000000
3.500000 0.800000 0.000000
3.600000 0.800000 0.000000
[...]
CELL_DATA 16000
SCALARS pressure float 1
LOOKUP_TABLE default
34.633
34.4561
34.1191
33.6555
33.0912
32.4424
31.7169
30.9158
30.0355
29.0698
28.0129
26.8624
25.6225
24.3057
22.9337
21.535
20.1415
18.7834
17.4849
16.2619
15.1215
14.0627
13.079
12.1608
11.2968
10.476
9.68867
8.92628
8.18209
7.45085
6.72859
6.01242
5.30028
4.59072
3.88278
3.17582
2.46943
1.76341
1.05767
0.352288
34.6886
34.4862
34.1353
33.6641
33.0956
32.4446
31.7182
30.9171
30.0372
29.0722
28.016
26.8659
25.6257
24.308
22.9345
21.5341
20.1391
18.78
17.4811
16.2584
15.1186
14.0606
13.0778
12.1603
11.2969
10.4765
9.6893
8.92699
8.18279
7.45149
6.72915
6.01289
5.30066
4.59102
3.88302
3.176
2.46956
1.76349
1.0577
0.35224
34.8089
34.5698
34.1947
33.7081
33.1307
32.4756
31.7486
30.9494
30.0728
29.111
28.0565
26.905
25.6594
24.3318
22.9451
21.53
20.1212
18.7514
17.446
16.2211
15.0826
14.0284
13.0506
12.1384
11.2799
10.4639
9.68022
8.92064
8.17849
7.44867
6.72736
6.0118
5.30003
4.59069
3.88287
3.17594
2.46955
1.76348
1.05765
0.352142
34.9719
34.6906
34.2855
33.7793
33.1907
32.531
31.8047
31.01
30.1398
29.1841
28.1325
26.9782
25.7218
24.3754
22.9635
21.5207
20.0862
18.6966
17.3793
16.1505
15.0147
13.9675
12.9991
12.0967
11.2476
10.4396
9.66249
8.90806
8.1698
7.44282
6.72353
6.00937
5.29854
4.58982
3.88238
3.17569
2.46942
1.7634
1.05757
0.352057
35.1566
34.8332
34.3967
33.8695
33.2692
32.6057
31.8822
31.0948
30.2345
29.2878
28.2408
27.0824
25.8105
24.4368
22.9883
21.5053
20.0338
18.616
17.2823
16.0486
14.9173
13.8807
12.9259
12.0379
11.2019
10.4053
9.63751
8.89033
8.15751
7.43451
6.71804
6.00585
5.29635
4.5885
3.88163
3.17528
2.46921
1.76328
1.05749
0.352004
35.3438
34.9822
34.516
33.9689
33.358
32.6925
31.9738
31.1967
30.3491
29.4144
28.3735
27.2106
25.9198
24.5119
23.0175
21.484
19.9664
18.5142
17.1611
15.9225
14.7978
13.7751
12.8375
11.967
11.1472
10.3644
9.60777
8.86924
8.14291
7.42462
6.71151
6.00164
5.29372
4.58691
3.8807
3.17478
2.46895
1.76315
1.05743
0.351987
35.5163
35.1226
34.6308
34.0667
33.4474
32.7814
32.0693
31.3041
30.4714
29.5504
28.5171
27.3502
26.0392
24.5938
23.0485
21.4589
19.8906
18.4011
17.0278
15.7853
14.6688
13.6619
12.7434
11.8921
11.0897
10.3216
9.57673
8.84728
8.12773
7.41437
6.70474
5.99728
5.29098
4.58526
3.87974
3.17425
2.46868
1.76303
1.05739
0.351996
35.6595
35.241
34.7294
34.1521
33.5267
32.8616
32.1566
31.4034
30.5853
29.6781
28.6531
27.4832
26.1536
24.6723
23.0776
21.4337
19.8166
18.2918
16.9002
15.655
14.5474
13.5563
12.6561
11.823
11.0369
10.2824
9.54845
8.82734
8.11398
7.40509
6.69862
5.99333
5.28851
4.58376
3.87887
3.17377
2.46844
1.76293
1.05736
0.352022
35.7619
35.3266
34.8014
34.2152
33.5861
32.9223
32.2233
31.4799
30.6738
29.7781
28.7602
27.5887
26.2447
24.735
23.1007
21.4129
19.7568
18.2043
16.7988
15.5523
14.4524
13.4741
12.5886
11.7699
10.9965
10.2525
9.52692
8.81219
8.10355
7.39806
6.69399
5.99036
5.28665
4.58263
3.87822
3.17341
2.46826
1.76286
1.05736
0.352049
35.8152
35.3714
34.8393
34.2487
33.6179
32.9551
32.2595
31.5217
30.7223
29.8331
28.8194
27.6473
26.2955
24.77
23.1135
21.4012
19.7232
18.1554
16.7425
15.4955
14.4002
13.4291
12.5518
11.741
10.9745
10.2364
9.51531
8.80404
8.09795
7.3943
6.69152
5.98877
5.28566
4.58203
3.87787
3.17322
2.46817
1.76282
1.05735
0.352066
35.8152
35.3715
34.8393
34.2488
33.6179
32.9551
32.2596
31.5217
30.7224
29.8332
28.8195
27.6473
26.2955
24.77
23.1135
21.4012
19.7232
18.1554
16.7426
15.4956
14.4003
13.4292
12.552
11.7411
10.9747
10.2365
9.5154
8.80411
8.09801
7.39435
6.69156
5.9888
5.28568
4.58205
3.87789
3.17323
2.46818
1.76283
1.05736
0.352067
35.762
35.3267
34.8014
34.2153
33.5862
32.9224
32.2234
31.48
30.6739
29.7782
28.7602
27.5887
26.2446
24.735
23.1007
21.413
19.7569
18.2045
16.7991
15.5527
14.4528
13.4745
12.5891
11.7702
10.9968
10.2528
9.52717
8.8124
8.10373
7.39821
6.69411
5.99045
5.28672
4.58268
3.87826
3.17344
2.46828
1.76287
1.05736
0.352051
35.6596
35.2411
34.7295
34.1522
33.5268
32.8617
32.1567
31.4035
30.5854
29.6782
28.6531
27.4832
26.1535
24.6723
23.0776
21.4338
19.8168
18.2922
16.9007
15.6556
14.5481
13.5569
12.6568
11.8236
11.0375
10.2829
9.54886
8.82768
8.11426
7.40532
6.6988
5.99348
5.28862
4.58384
3.87893
3.17381
2.46847
1.76295
1.05737
0.352025
35.5164
35.1227
34.631
34.0669
33.4476
32.7816
32.0695
31.3043
30.4715
29.5505
28.5172
27.3502
26.0392
24.5938
23.0485
21.4591
19.891
18.4016
17.0285
15.7861
14.6697
13.6628
12.7443
11.8929
11.0904
10.3222
9.57727
8.84774
8.12811
7.41468
6.70499
5.99747
5.29113
4.58536
3.87982
3.1743
2.46872
1.76305
1.0574
0.352
35.3439
34.9823
34.5161
33.9691
33.3582
32.6926
31.974
31.1968
30.3493
29.4145
28.3735
27.2106
25.9198
24.5119
23.0176
21.4842
19.9669
18.5148
17.1619
15.9235
14.7988
13.7761
12.8385
11.9679
11.1481
10.3651
9.60841
8.86978
8.14335
7.42499
6.7118
6.00187
5.29389
4.58704
3.8808
3.17484
2.46899
1.76318
1.05744
0.351991
35.1568
34.8334
34.3968
33.8697
33.2693
32.6059
31.8824
31.095
30.2346
29.2879
28.2408
27.0824
25.8105
24.4368
22.9885
21.5056
20.0343
18.6167
17.2833
16.0497
14.9184
13.8819
12.9271
12.0389
11.2029
10.4061
9.63823
8.89093
8.15801
7.43491
6.71836
6.00609
5.29653
4.58864
3.88172
3.17535
2.46925
1.76331
1.0575
0.352008
34.9721
34.6908
34.2857
33.7795
33.1908
32.5312
31.8049
31.0101
30.1399
29.1842
28.1326
26.9782
25.7218
24.3755
22.9638
21.5211
20.0868
18.6974
17.3804
16.1516
15.0159
13.9687
13.0002
12.0978
11.2486
10.4404
9.66324
8.90869
8.17032
7.44324
6.72386
6.00962
5.29873
4.58996
3.88248
3.17576
2.46946
1.76342
1.05757
0.352059
34.809
34.57
34.1948
33.7083
33.1309
32.4758
31.7488
30.9496
30.0729
29.1111
28.0566
26.9051
25.6594
24.332
22.9454
21.5304
20.1218
18.7522
17.4471
16.2223
15.0839
14.0296
13.0518
12.1395
11.2809
10.4648
9.68098
8.92128
8.17901
7.44909
6.72769
6.01205
5.30022
4.59083
3.88296
3.176
2.46959
1.76349
1.05765
0.352142
34.6888
34.4864
34.1355
33.6642
33.0958
32.4448
31.7184
30.9173
30.0374
29.0723
28.0161
26.8659
25.6258
24.3082
22.9348
21.5346
20.1398
18.7808
17.4822
16.2596
15.1198
14.0618
13.079
12.1614
11.2978
10.4773
9.69004
8.9276
8.1833
7.4519
6.72947
6.01313
5.30084
4.59115
3.8831
3.17605
2.46959
1.7635
1.0577
0.352238
34.6331
34.4563
34.1193
33.6557
33.0914
32.4426
31.7171
30.916
30.0356
29.0699
28.013
26.8625
25.6226
24.3059
22.934
21.5355
20.1422
18.7842
17.4859
16.2631
15.1226
14.0638
13.0802
12.1618
11.2977
10.4769
9.68938
8.92687
8.18257
7.45123
6.72889
6.01265
5.30044
4.59084
3.88286
3.17586
2.46945
1.76341
1.05766
0.352282
34.6886
34.4862
34.1353
33.6641
33.0956
32.4446
31.7182
30.9171
30.0372
29.0722
28.016
26.8658
25.6257
24.308
22.9345
21.5341
20.1391
18.78
17.4811
16.2584
15.1186
14.0606
13.0779
12.1603
11.2969
10.4765
9.68931
8.92699
8.1828
7.45149
6.72915
6.01289
5.30066
4.59102
3.88302
3.176
2.46956
1.76349
1.0577
0.35224
34.7323
34.4916
34.1217
33.6418
33.069
32.4153
31.6866
30.883
30.001
29.0348
27.9789
26.8314
25.5966
24.2871
22.9237
21.5344
20.1501
18.8002
17.508
16.2892
15.1506
14.0916
13.1062
12.1852
11.3178
10.4936
9.70297
8.93762
8.19089
7.45755
6.7336
6.01611
5.30295
4.59264
3.88414
3.17678
2.47011
1.76388
1.05796
0.352314
34.8485
34.5618
34.1631
33.6657
33.0827
32.4235
31.6922
30.8881
30.0069
29.0419
27.9872
26.8401
25.6043
24.292
22.9248
21.5312
20.1431
18.7907
17.4978
16.2796
15.1426
14.0857
13.1025
12.1833
11.3174
10.4942
9.70412
8.93906
8.1924
7.45898
6.73488
6.0172
5.30386
4.59337
3.88471
3.17722
2.47044
1.76411
1.05808
0.352296
35.0147
34.6761
34.2432
33.7237
33.1275
32.4617
31.7287
30.9262
30.0485
29.0872
28.0343
26.8853
25.6425
24.318
22.9345
21.5229
20.1186
18.7539
17.4541
16.2343
15.0998
14.0481
13.0713
12.1588
11.2989
10.4808
9.69478
8.93279
8.18838
7.45653
6.73349
6.0165
5.30358
4.59333
3.8848
3.17736
2.47058
1.76422
1.05814
0.352279
35.2064
34.816
34.3474
33.8044
33.1944
32.5224
31.7892
30.9908
30.1192
29.1638
28.1136
26.961
25.7062
24.3611
22.9502
21.509
20.0776
18.6927
17.3814
16.1586
15.0279
13.9844
13.0179
12.116
11.266
10.4563
9.67716
8.92048
8.18003
7.45104
6.73001
6.01438
5.30236
4.59268
3.88451
3.17726
2.47058
1.76426
1.05817
0.35229
35.4017
34.9639
34.4617
33.8965
33.2738
32.5969
31.8652
31.073
30.2101
29.2626
28.216
27.0589
25.7887
24.4166
22.97
21.4898
20.0232
18.6124
17.2866
16.0604
14.935
13.9023
12.9491
12.0609
11.2234
10.4245
9.65412
8.90423
8.16886
7.44358
6.72516
6.01133
5.30051
4.59162
3.88394
3.177
2.47049
1.76424
1.05819
0.35233
35.5821
35.1039
34.5729
33.9884
33.355
32.675
31.9464
31.1619
30.3091
29.371
28.3291
27.1677
25.8806
24.4784
22.9915
21.4673
19.9614
18.5219
17.1809
15.9519
14.833
13.8126
12.8743
12.0011
11.1773
10.3901
9.62913
8.88655
8.15667
7.43537
6.71978
6.00791
5.29841
4.59039
3.88326
3.17665
2.47034
1.7642
1.05821
0.35239
35.7318
35.2224
34.6686
34.0691
33.4277
32.746
32.0212
31.2448
30.4022
29.4737
28.437
27.2721
25.9694
24.5382
23.0119
21.4448
19.9007
18.4341
17.0791
15.8483
14.7364
13.7282
12.8043
11.9453
11.1345
10.3582
9.60595
8.87015
8.14534
7.42773
6.71476
6.0047
5.29642
4.58921
3.88259
3.17631
2.47019
1.76416
1.05823
0.352456
35.8388
35.3079
34.7385
34.1288
33.4822
32.8
32.0787
31.3089
30.4747
29.5543
28.5223
27.3553
26.0406
24.5863
23.0283
21.4263
19.8515
18.3635
16.9981
15.7665
14.6606
13.6624
12.7499
11.9022
11.1015
10.3336
9.58816
8.85758
8.13666
7.42188
6.7109
6.00223
5.29489
4.58829
3.88207
3.17603
2.47006
1.76412
1.05825
0.352512
35.8945
35.3528
34.7755
34.1605
33.5114
32.8291
32.1099
31.3439
30.5145
29.5987
28.5695
27.4016
26.0804
24.6134
23.0374
21.4158
19.8238
18.324
16.9531
15.7213
14.619
13.6264
12.7203
11.8788
11.0836
10.3203
9.57854
8.85079
8.13198
7.41872
6.70883
6.0009
5.29406
4.5878
3.8818
3.17589
2.47
1.76411
1.05826
0.352544
35.8945
35.3528
34.7755
34.1606
33.5114
32.8291
32.1099
31.3439
30.5145
29.5987
28.5695
27.4016
26.0804
24.6134
23.0374
21.4158
19.8239
18.3241
16.9532
15.7214
14.6191
13.6265
12.7204
11.8789
11.0837
10.3204
9.57862
8.85086
8.13203
7.41877
6.70887
6.00093
5.29409
4.58782
3.88181
3.1759
2.47
1.76411
1.05826
0.352544
35.8389
35.308
34.7386
34.1289
33.4822
32.8
32.0787
31.309
30.4748
29.5544
28.5223
27.3553
26.0406
24.5863
23.0283
21.4264
19.8517
18.3637
16.9985
15.7668
14.661
13.6628
12.7503
11.9026
11.1018
10.3339
9.5884
8.85778
8.13683
7.42201
6.71101
6.00231
5.29495
4.58834
3.88211
3.17606
2.47008
1.76413
1.05825
0.352512
35.7319
35.2224
34.6686
34.0692
33.4277
32.7461
32.0213
31.2449
30.4023
29.4738
28.4371
27.2721
25.9694
24.5382
23.012
21.4449
19.901
18.4344
17.0796
15.8488
14.737
13.7288
12.8049
11.9459
11.135
10.3586
9.60633
8.87048
8.14561
7.42795
6.71493
6.00483
5.29653
4.58929
3.88265
3.17635
2.47021
1.76417
1.05823
0.352455
35.5822
35.1041
34.573
33.9886
33.3552
32.6751
31.9465
31.1621
30.3092
29.3711
28.3292
27.1677
25.8806
24.4784
22.9916
21.4675
19.9618
18.5224
17.1815
15.9526
14.8338
13.8134
12.8751
12.0018
11.178
10.3907
9.62963
8.88698
8.15702
7.43566
6.72001
6.00809
5.29855
4.59049
3.88334
3.1767
2.47037
1.76422
1.05821
0.352388
35.4019
34.964
34.4619
33.8967
33.2739
32.5971
31.8654
31.0732
30.2102
29.2627
28.2161
27.059
25.7887
24.4166
22.9701
21.4901
20.0237
18.613
17.2874
16.0613
14.936
13.9033
12.9501
12.0617
11.2242
10.4252
9.65472
8.90474
8.16928
7.44392
6.72543
6.01154
5.30068
4.59175
3.88403
3.17706
2.47052
1.76426
1.05819
0.352327
35.2065
34.8161
34.3475
33.8046
33.1946
32.5226
31.7894
30.9909
30.1194
29.1639
28.1137
26.961
25.7063
24.3612
22.9504
21.5093
20.0781
18.6934
17.3822
16.1595
15.0289
13.9854
13.0189
12.1169
11.2668
10.4571
9.67782
8.92105
8.1805
7.45143
6.73031
6.01462
5.30254
4.59282
3.8846
3.17733
2.47062
1.76427
1.05817
0.352287
35.0149
34.6763
34.2433
33.7238
33.1277
32.4619
31.7288
30.9264
30.0487
29.0873
28.0344
26.8854
25.6426
24.3182
22.9347
21.5233
20.1192
18.7547
17.4551
16.2353
15.1009
14.0493
13.0724
12.1598
11.2998
10.4816
9.69548
8.93339
8.18887
7.45693
6.73381
6.01675
5.30376
4.59347
3.8849
3.17742
2.47062
1.76424
1.05814
0.352276
34.8487
34.562
34.1633
33.6659
33.0829
32.4236
31.6923
30.8883
30.007
29.0421
27.9874
26.8402
25.6044
24.2922
22.9251
21.5316
20.1437
18.7915
17.4987
16.2807
15.1437
14.0869
13.1036
12.1843
11.3183
10.495
9.70484
8.93966
8.1929
7.45938
6.7352
6.01745
5.30404
4.5935
3.8848
3.17728
2.47047
1.76412
1.05808
0.352292
34.7325
34.4917
34.1219
33.642
33.0692
32.4155
31.6867
30.8832
30.0012
29.0349
27.979
26.8315
25.5968
24.2872
22.924
21.5349
20.1508
18.801
17.509
16.2903
15.1517
14.0927
13.1073
12.1862
11.3188
10.4945
9.70368
8.93821
8.19138
7.45794
6.7339
6.01634
5.30312
4.59276
3.88422
3.17683
2.47013
1.76388
1.05795
0.352309
34.6888
34.4864
34.1355
33.6642
33.0958
32.4448
31.7184
30.9173
30.0374
29.0724
28.0161
26.866
25.6258
24.3082
22.9348
21.5346
20.1398
18.7808
17.4821
16.2595
15.1197
14.0618
13.0789
12.1613
11.2978
10.4773
9.68998
8.92756
8.18326
7.45186
6.72944
6.01311
5.30081
4.59113
3.88309
3.17604
2.46958
1.76349
1.05769
0.35223
34.8089
34.5698
34.1947
33.7081
33.1307
32.4756
31.7486
30.9494
30.0727
29.111
28.0565
26.905
25.6593
24.3318
22.945
21.5299
20.1212
18.7514
17.4461
16.2212
15.0827
14.0285
13.0507
12.1385
11.28
10.4639
9.68024
8.92065
8.1785
7.44867
6.72736
6.01181
5.30004
4.5907
3.88287
3.17595
2.46955
1.76348
1.05765
0.352143
34.8485
34.5618
34.1631
33.6657
33.0827
32.4235
31.6921
30.8881
30.0068
29.0419
27.9872
26.8401
25.6042
24.292
22.9248
21.5311
20.1431
18.7907
17.4978
16.2796
15.1426
14.0857
13.1025
12.1833
11.3174
10.4942
9.70413
8.93907
8.1924
7.45898
6.73488
6.01721
5.30386
4.59337
3.88471
3.17722
2.47044
1.76411
1.05808
0.352296
34.9606
34.6231
34.1916
33.6743
33.0794
32.4129
31.6773
30.8709
29.9887
29.024
27.9705
26.8254
25.5921
24.2827
22.9184
21.528
20.1435
18.7951
17.506
16.2912
15.1567
14.1011
13.118
12.1981
11.3309
10.506
9.71411
8.94728
8.19901
7.46418
6.7389
6.02026
5.30615
4.59506
3.88596
3.17812
2.47109
1.76456
1.05835
0.352327
35.127
34.7329
34.2634
33.7214
33.1115
32.4368
31.6979
30.8916
30.0117
29.05
27.9988
26.8533
25.6156
24.2975
22.9214
21.5182
20.1228
18.7671
17.4752
16.2615
15.1307
14.0802
13.1024
12.1872
11.3239
10.502
9.71217
8.94674
8.19931
7.46495
6.73986
6.02125
5.30707
4.59587
3.88663
3.17867
2.47152
1.76487
1.05853
0.352358
35.3232
34.8717
34.3628
33.7948
33.1692
32.4868
31.7462
30.9427
30.0681
29.1121
28.064
26.9162
25.6684
24.3317
22.9307
21.5008
20.0819
18.7099
17.4105
16.1968
15.0716
14.0297
13.0616
12.1558
11.3006
10.4854
9.70085
8.93929
8.19465
7.46219
6.73838
6.02057
5.30687
4.59595
3.88685
3.17893
2.47176
1.76507
1.05867
0.352422
35.5256
35.0208
34.4747
33.882
33.2418
32.5532
31.8129
31.0147
30.1482
29.2004
28.1568
27.0058
25.7437
24.3807
22.9441
21.476
20.0239
18.6292
17.3193
16.1059
14.9884
13.9583
13.0034
12.1103
11.2664
10.4605
9.68322
8.92722
8.18663
7.45706
6.73523
6.01874
5.3059
4.5955
3.88671
3.17896
2.47187
1.7652
1.05879
0.35252
35.7139
35.1632
34.5847
33.9707
33.3183
32.6252
31.8871
31.096
30.2396
29.3018
28.2643
27.1106
25.8325
24.4387
22.9598
21.4461
19.9549
18.5343
17.2133
16.0012
14.8933
13.8771
12.9374
12.0587
11.2274
10.4318
9.66283
8.91308
8.1771
7.45082
6.73127
6.01634
5.30452
4.59477
3.88638
3.17886
2.4719
1.76528
1.0589
0.352638
35.8709
35.2842
34.6801
34.0493
33.3876
32.692
31.957
31.1735
30.3277
29.4007
28.3704
27.2151
25.9222
24.4978
22.9757
21.4151
19.8843
18.4386
17.108
15.8986
14.8011
13.799
12.8742
12.0094
11.1902
10.4046
9.64335
8.89952
8.1679
7.44474
6.72738
6.01393
5.3031
4.59399
3.88599
3.17871
2.47187
1.76533
1.05898
0.352757
35.9833
35.3718
34.7502
34.1078
33.44
32.7432
32.0112
31.2344
30.3975
29.4799
28.4562
27.3009
25.9968
24.5476
22.9891
21.3888
19.825
18.3593
17.0221
15.816
14.7277
13.7374
12.8246
11.9709
11.1612
10.3833
9.62819
8.88895
8.16071
7.43998
6.72431
6.01202
5.30196
4.59335
3.88566
3.17856
2.47184
1.76536
1.05905
0.352852
36.0419
35.4178
34.7872
34.139
33.4682
32.7709
32.0409
31.2678
30.4361
29.5239
28.5044
27.3496
26.0397
24.5765
22.997
21.3735
19.7906
18.314
16.9736
15.7699
14.687
13.7034
12.7974
11.9499
11.1454
10.3718
9.61995
8.88321
8.1568
7.43739
6.72264
6.01098
5.30134
4.593
3.88548
3.17849
2.47182
1.76538
1.05908
0.352904
36.0419
35.4178
34.7872
34.139
33.4682
32.7709
32.0409
31.2679
30.4361
29.524
28.5044
27.3496
26.0397
24.5765
22.997
21.3735
19.7907
18.314
16.9737
15.77
14.6872
13.7036
12.7975
11.95
11.1455
10.3719
9.62002
8.88327
8.15686
7.43743
6.72268
6.01101
5.30136
4.59301
3.88549
3.17849
2.47183
1.76538
1.05908
0.352903
35.9834
35.3719
34.7502
34.1078
33.4401
32.7432
32.0113
31.2345
30.3976
29.4799
28.4562
27.3009
25.9968
24.5475
22.9891
21.3889
19.8252
18.3596
17.0224
15.8164
14.7281
13.7378
12.8249
11.9713
11.1615
10.3836
9.62842
8.88914
8.16087
7.44011
6.72442
6.01211
5.30203
4.59339
3.8857
3.17859
2.47186
1.76537
1.05905
0.352849
35.871
35.2843
34.6802
34.0494
33.3877
32.6921
31.9571
31.1736
30.3278
29.4008
28.3704
27.2152
25.9221
24.4977
22.9758
21.4153
19.8846
18.439
17.1085
15.8992
14.8017
13.7997
12.8748
12.01
11.1907
10.405
9.64372
8.89983
8.16815
7.44495
6.72755
6.01407
5.3032
4.59407
3.88605
3.17874
2.4719
1.76535
1.05899
0.352753
35.714
35.1633
34.5849
33.9708
33.3184
32.6254
31.8873
31.0961
30.2397
29.302
28.2644
27.1106
25.8325
24.4387
22.9599
21.4463
19.9552
18.5348
17.2139
16.0019
14.8941
13.8779
12.9381
12.0594
11.228
10.4324
9.66331
8.91349
8.17744
7.4511
6.7315
6.01652
5.30466
4.59488
3.88645
3.17891
2.47193
1.7653
1.0589
0.352633
35.5258
35.0209
34.4748
33.8822
33.242
32.5533
31.8131
31.0149
30.1484
29.2005
28.1569
27.0059
25.7437
24.3807
22.9443
21.4763
20.0243
18.6299
17.3201
16.1068
14.9893
13.9593
13.0043
12.1112
11.2671
10.4611
9.6838
8.92771
8.18704
7.45739
6.73549
6.01895
5.30606
4.59562
3.8868
3.17902
2.47191
1.76523
1.0588
0.352513
35.3234
34.8718
34.363
33.795
33.1693
32.487
31.7464
30.9429
30.0683
29.1123
28.0642
26.9163
25.6685
24.3318
22.9309
21.5011
20.0824
18.7106
17.4113
16.1978
15.0726
14.0307
13.0626
12.1567
11.3015
10.4862
9.70149
8.93984
8.1951
7.46256
6.73867
6.0208
5.30705
4.59608
3.88694
3.17899
2.4718
1.7651
1.05868
0.352414
35.1272
34.7331
34.2636
33.7216
33.1116
32.437
31.6981
30.8918
30.0119
29.0502
27.9989
26.8534
25.6157
24.2977
22.9217
21.5186
20.1234
18.7679
17.4762
16.2626
15.1318
14.0813
13.1034
12.1882
11.3248
10.5027
9.71286
8.94732
8.19979
7.46533
6.74017
6.02149
5.30725
4.596
3.88673
3.17873
2.47155
1.76489
1.05853
0.352349
34.9607
34.6232
34.1918
33.6745
33.0795
32.4131
31.6775
30.8711
29.9889
29.0241
27.9707
26.8256
25.5922
24.2828
22.9187
21.5284
20.1442
18.7959
17.507
16.2923
15.1578
14.1022
13.1191
12.1992
11.3318
10.5068
9.71482
8.94787
8.19949
7.46457
6.73921
6.0205
5.30633
4.59519
3.88604
3.17818
2.47112
1.76457
1.05835
0.352318
34.8487
34.562
34.1633
33.6659
33.0829
32.4237
31.6923
30.8883
30.007
29.0421
27.9873
26.8402
25.6043
24.2922
22.9251
21.5316
20.1438
18.7916
17.4988
16.2807
15.1438
14.0869
13.1036
12.1843
11.3183
10.495
9.70482
8.93964
8.19287
7.45936
6.73518
6.01743
5.30402
4.59348
3.88479
3.17726
2.47046
1.76411
1.05807
0.352286
34.809
34.57
34.1948
33.7083
33.1309
32.4758
31.7488
30.9496
30.0729
29.1112
28.0566
26.9051
25.6594
24.332
22.9453
21.5304
20.1218
18.7522
17.4471
16.2223
15.0838
14.0296
13.0518
12.1395
11.2809
10.4647
9.6809
8.9212
8.17894
7.44902
6.72763
6.012
5.30017
4.59079
3.88292
3.17597
2.46956
1.76347
1.05763
0.352126
34.9719
34.6906
34.2855
33.7793
33.1906
32.531
31.8047
31.0099
30.1397
29.184
28.1324
26.978
25.7216
24.3753
22.9634
21.5206
20.0862
18.6966
17.3794
16.1506
15.0147
13.9676
12.9991
12.0968
11.2476
10.4396
9.66252
8.90809
8.16982
7.44283
6.72354
6.00937
5.29854
4.58982
3.88238
3.17569
2.46943
1.7634
1.05757
0.352057
35.0147
34.6761
34.2432
33.7237
33.1275
32.4617
31.7286
30.9262
30.0484
29.0871
28.0342
26.8852
25.6424
24.3179
22.9344
21.5229
20.1185
18.754
17.4542
16.2344
15.0999
14.0482
13.0714
12.1588
11.2989
10.4808
9.6948
8.93281
8.18839
7.45654
6.7335
6.0165
5.30358
4.59333
3.88481
3.17736
2.47058
1.76422
1.05814
0.35228
35.127
34.7329
34.2634
33.7214
33.1115
32.4368
31.6979
30.8916
30.0117
29.05
27.9987
26.8532
25.6156
24.2975
22.9214
21.5182
20.1228
18.7671
17.4753
16.2616
15.1307
14.0802
13.1024
12.1872
11.3239
10.502
9.71219
8.94675
8.19932
7.46495
6.73986
6.02125
5.30707
4.59587
3.88664
3.17867
2.47152
1.76487
1.05853
0.352358