# vtk DataFile Version 2.0
I need something to put here
ASCII

DATASET STRUCTURED_GRID
DIMENSIONS 41 21 21
POINTS 18081 float
0.000000 0.000000 0.000000
0.100000 0.000000 0.000000
0.200000 0.000000 0.000000
0.300000 0.000000 0.000000
0.400000 0.000000 0.000000
0.500000 0.000000 0.000000
0.600000 0.000000 0.000000
0.700000 0.000000 0.000000
0.800000 0.000000 0.000000
0.900000 0.000000 0.000000
1.000000 0.000000 0.000000
1.100000 0.000000 0.000000
1.200000 0.000000 0.000000
1.300000 0.000000 0.000000
1.400000 0.000000 0.000000
1.500000 0.000000 0.000000
1.600000 0.000000 0.000000
1.700000 0.000000 0.000000
1.800000 0.000000 0.000000
1.900000 0.000000 0.000000
2.000000 0.000000 0.000000
2.100000 0.000000 0.000000
2.200000 0.000000 0.000000
2.300000 0.000000 0.000000
2.400000 0.000000 0.000000
2.500000 0.000000 0.000000
2.600000 0.000000 0.000000
2.700000 0.000000 0.000000
2.800000 0.000000 0.000000
2.900000 0.000000 0.000000
3.000000 0.000000 0.000000
3.100000 0.000000 0.000000
3.200000 0.000000 0.000000
3.300000 0.000000 0.000000
3.400000 0.000000 0.000000
3.500000 0.000000 0.000000
3.600000 0.000000 0.000000
3.700000 0.000000 0.000000
3.800000 0.000000 0.000000
3.900000 0.000000 0.000000
4.000000 0.000000 0.000000
0.000000 0.100000 0.000000
0.100000 0.100000 0.000000
0.200000 0.100000 0.000000
0.300000 0.100000 0.000000
0.400000 0.100000 0.000000
0.500000 0.100000 0.000000
0.600000 0.100000 0.000000
0.700000 0.100000 0.000000
0.800000 0.100000 0.000000
0.900000 0.100000 0.000000
1.000000 0.100000 0.000000
1.100000 0.100000 0.000000
1.200000 0.100000 0.000000
1.300000 0.100000 0.000000
1.400000 0.100000 0.000000
1.500000 0.100000 0.000000
1.600000 0.100000 0.000000
1.700000 0.100000 0.000000
1.800000 0.100000 0.000000
1.900000 0.100000 0.000000
2.000000 0.100000 0.000000
2.100000 0.100000 0.000000
2.200000 0.100000 0.000000
2.300000 0.100000 0.000000
2.400000 0.100000 0.000000
2.500000 0.100000 0.000000
2.600000 0.100000 0.000000
2.700000 0.100000 0.000000
2.800000 0.100000 0.000000
2.900000 0.100000 0.000000
3.000000 0.100000 0.000000
3.100000 0.100000 0.000000
3.200000 0.100000 0.000000
3.300000 0.100000 0.000000
3.400000 0.100000 0.000000
3.500000 0.100000 0.000000
3.600000 0.100000 0.000000
3.700000 0.100000 0.000000
3.800000 0.100000 0.000000
3.900000 0.100000 0.000000
4.000000 0.100000 0.000000
0.000000 0.200000 0.000000
0.100000 0.200000 0.000000
0.200000 0.200000 0.000000
0.300000 0.200000 0.000000
0.400000 0.200000 0.000000
0.500000 0.200000 0.000000
0.600000 0.200000 0.000000
0.700000 0.200000 0.000000
0.800000 0.200000 0.000000
0.900000 0.200000 0.000000
1.000000 0.200000 0.000000
1.100000 0.200000 0.000000
1.200000 0.200000 0.000000
1.300000 0.200000 0.000000
1.400000 0.200000 0.000000
1.500000 0.200000 0.000000
1.600000 0.200000 0.000000
1.700000 0.200000 0.000000
1.800000 0.200000 0.000000
1.900000 0.200000 0.000000
2.000000 0.200000 0.000000
2.100000 0.200000 0.000000
2.200000 0.200000 0.000000
2.300000 0.200000 0.000000
2.400000 0.200000 0.000000
2.500000 0.200000 0.000000
2.600000 0.200000 0.000000
2.700000 0.200000 0.000000
2.800000 0.200000 0.000000
2.900000 0.200000 0.000000
3.000000 0.200000 0.000000
3.100000 0.200000 0.000000
3.200000 0.200000 0.000000
3.300000 0.200000 0.000000
3.400000 0.200000 0.000000
3.500000 0.200000 0.000000
3.600000 0.200000 0.000000
3.700000 0.200000 0.000000
3.800000 0.200000 0.000000
3.900000 0.200000 0.000000
4.000000 0.200000 0.000000
0.000000 0.300000 0.000000
0.100000 0.300000 0.000000
0.200000 0.300000 0.000000
0.300000 0.300000 0.000000
0.400000 0.300000 0.000000
0.500000 0.300000 0.000000
0.600000 0.300000 0.000000
0.700000 0.300000 0.000000
0.800000 0.300000 0.000000
0.900000 0.300000 0.000000
1.000000 0.300000 0.000000
1.100000 0.300000 0.000000
1.200000 0.300000 0.000000
1.300000 0.300000 0.000000
1.400000 0.300000 0.000000
1.500000 0.300000 0.000000
1.600000 0.300000 0.000000
1.700000 0.300000 0.000000
1.800000 0.300000 0.000000
1.900000 0.300000 0.000000
2.000000 0.300000 0.000000
2.100000 0.300000 0.000000
2.200000 0.300000 0.000000
2.300000 0.300000 0.000000
2.400000 0.300000 0.000000
2.500000 0.300000 0.000000
2.600000 0.300000 0.000000
2.700000 0.300000 0.000000
2.800000 0.300000 0.000000
2.900000 0.300000 0.000000
3.000000 0.300000 0.000000
3.100000 0.300000 0.000000
3.200000 0.300000 0.000000
3.300000 0.300000 0.000000
3.400000 0.300000 0.000000
3.500000 0.300000 0.000000
3.600000 0.300000 0.000000
3.700000 0.300000 0.000000
3.800000 0.300000 0.000000
3.900000 0.300000 0.000000
4.000000 0.300000 0.000000
0.000000 0.400000 0.000000
0.100000 0.400000 0.000000
0.200000 0.400000 0.000000
0.300000 0.400000 0.000000
0.400000 0.400000 0.000000
0.500000 0.400000 0.000000
0.600000 0.400000 0.000000
0.700000 0.400000 0.000000
0.800000 0.400000 0.000000
0.900000 0.400000 0.000000
1.000000 0.400000 0.000000
1.100000 0.400000 0.000000
1.200000 0.400000 0.000000
1.300000 0.400000 0.000000
1.400000 0.400000 0.000000
1.500000 0.400000 0.000000
1.600000 0.400000 0.000000
1.700000 0.400000 0.000000
1.800000 0.400000 0.000000
1.900000 0.400000 0.000000
2.000000 0.400000 0.000000
2.100000 0.400000 0.000000
2.200000 0.400000 0.000000
2.300000 0.400000 0.000000
2.400000 0.400000 0.000000
2.500000 0.400000 0.000000
2.600000 0.400000 0.000000
2.700000 0.400000 0.000000
2.800000 0.400000 0.000000
2.900000 0.400000 0.000000
3.000000 0.400000 0.000000
3.100000 0.400000 0.000000
3.200000 0.400000 0.000000
3.300000 0.400000 0.000000
3.400000 0.400000 0.000000
3.500000 0.400000 0.000000
3.600000 0.400000 0.000000
3.700000 0.400000 0.000000
3.800000 0.400000 0.000000
3.900000 0.400000 0.000000
4.000000 0.400000 0.000000
0.000000 0.500000 0.000000
0.100000 0.500000 0.000000
0.200000 0.500000 0.000000
0.300000 0.500000 0.000000
0.400000 0.500000 0.000000
0.500000 0.500000 0.000000
0.600000 0.500000 0.000000
0.700000 0.500000 0.000000
0.800000 0.500000 0.000000
0.900000 0.500000 0.000000
1.000000 0.500000 0.000000
1.100000 0.500000 0.000000
1.200000 0.500000 0.000000
1.300000 0.500000 0.000000
1.400000 0.500000 0.000000
1.500000 0.500000 0.000000
1.600000 0.500000 0.000000
1.700000 0.500000 0.000000
1.800000 0.500000 0.000000
1.900000 0.500000 0.000000
2.000000 0.500000 0.000000
2.100000 0.500000 0.000000
2.200000 0.500000 0.000000
2.300000 0.500000 0.000000
2.400000 0.500000 0.000000
2.500000 0.500000 0.000000
2.600000 0.500000 0.000000
2.700000 0.500000 0.000000
2.800000 0.500000 0.000000
2.900000 0.500000 0.000000
3.000000 0.500000 0.000000
3.100000 0.500000 0.000000
3.200000 0.500000 0.000000
3.300000 0.500000 0.000000
3.400000 0.500000 0.000000
3.500000 0.500000 0.000000
3.600000 0.500000 0.000000
3.700000 0.500000 0.000000
3.800000 0.500000 0.000000
3.900000 0.500000 0.000000
4.000000 0.500000 0.000000
0.000000 0.600000 0.000000
0.100000 0.600000 0.000000
0.200000 0.600000 0.000000
0.300000 0.600000 0.000000
0.400000 0.600000 0.000000
0.500000 0.600000 0.000000
0.600000 0.600000 0.000000
0.700000 0.600000 0.000000
0.800000 0.600000 0.000000
0.900000 0.600000 0.000000
1.000000 0.600000 0.000000
1.100000 0.600000 0.000000
1.200000 0.600000 0.000000
1.300000 0.600000 0.000000
1.400000 0.600000 0.000000
1.500000 0.600000 0.000000
1.600000 0.600000 0.000000
1.700000 0.600000 0.000000
1.800000 0.600000 0.000000
1.900000 0.600000 0.000000
2.000000 0.600000 0.000000
2.100000 0.600000 0.000000
2.200000 0.600000 0.000000
2.300000 0.600000 0.000000
2.400000 0.600000 0.000000
2.500000 0.600000 0.000000
2.600000 0.600000 0.000000
2.700000 0.600000 0.000000
2.800000 0.600000 0.000000
2.900000 0.600000 0.000000
3.000000 0.600000 0.000000
3.100000 0.600000 0.000000
3.200000 0.600000 0.000000
3.300000 0.600000 0.000000
3.400000 0.600000 0.000000
3.500000 0.600000 0.000000
3.600000 0.600000 0.000000
3.700000 0.600000 0.000000
3.800000 0.600000 0.000000
3.900000 0.600000 0.000000
4.000000 0.600000 0.000000
0.000000 0.700000 0.000000
0.100000 0.700000 0.000000
0.200000 0.700000 0.000000
0.300000 0.700000 0.000000
0.400000 0.700000 0.000000
0.500000 0.700000 0.000000
0.600000 0.700000 0.000000
0.700000 0.700000 0.000000
0.800000 0.700000 0.000000
0.900000 0.700000 0.000000
1.000000 0.700000 0.000000
1.100000 0.700000 0.000000
1.200000 0.700000 0.000000
1.300000 0.700000 0.000000
1.400000 0.700000 0.000000
1.500000 0.700000 0.000000
1.600000 0.700000 0.000000
1.700000 0.700000 0.000000
1.800000 0.700000 0.000000
1.900000 0.700000 0.000000
2.000000 0.700000 0.000000
2.100000 0.700000 0.000000
2.200000 0.700000 0.000000
2.300000 0.700000 0.000000
2.400000 0.700000 0.000000
2.500000 0.700000 0.000000
2.600000 0.700000 0.000000
2.700000 0.700000 0.000000
2.800000 0.700000 0.000000
2.900000 0.700000 0.000000
3.000000 0.700000 0.000000
3.100000 0.700000 0.000000
3.200000 0.700000 0.000000
3.300000 0.700000 0.000000
3.400000 0.700000 0.000000
3.500000 0.700000 0.000000
3.600000 0.700000 0.000000
3.700000 0.700000 0.000000
3.800000 0.700000 0.000000
3.900000 0.700000 0.000000
4.000000 0.700000 0.000000
0.000000 0.800000 0.000000
0.100000 0.800000 0.000000
0.200000 0.800000 0.000000
0.300000 0.800000 0.000000
0.400000 0.800000 0.000000
0.500000 0.800000 0.000000
0.600000 0.800000 0.000000
0.700000 0.800000 0.000000
0.800000 0.800000 0.000000
0.900000 0.800000 0.000000
1.000000 0.800000 0.000000
1.100000 0.800000 0.000000
1.200000 0.800000 0.000000
1.300000 0.800000 0.000000
1.400000 0.800000 0.000000
1.500000 0.800000 0.000000
1.600000 0.800000 0.000000
1.700000 0.800000 0.000000
1.800000 0.800000 0.000000
1.900000 0.800000 0.000000
2.000000 0.800000 0.000000
2.100000 0.800000 0.000000
2.200000 0.800000 0.000000
2.300000 0.800000 0.000000
2.400000 0.800000 0.000000
2.500000 0.800000 0.000000
2.600000 0.800000 0.000000
2.700000 0.800000 0.000000
2.800000 0.800000 0.000000
2.900000 0.800000 0.000000
3.000000 0.800000 0.000000
3.100000 0.800000 0.000000
3.200000 0.800000 0.000000
3.300000 0.800000 0.000000
3.400000 0.800000 0.000000
3.500000 0.800000 0.000000
3.600000 0.800000 0.000000
[...]
CELL_DATA 16000
SCALARS pressure float 1
LOOKUP_TABLE default
34.7082
34.5315
34.1944
33.7306
33.1657
32.5158
31.7887
30.9854
30.1022
29.1329
28.0719
26.9169
25.6722
24.3507
22.974
21.5709
20.173
18.8107
17.5081
16.2812
15.1371
14.075
13.0885
12.1679
11.302
10.4798
9.69126
8.92804
8.18326
7.4516
6.72906
6.0127
5.30043
4.59079
3.8828
3.17581
2.46941
1.76338
1.05764
0.352275
34.7639
34.5616
34.2106
33.7391
33.17
32.518
31.7901
30.9867
30.104
29.1354
28.0751
26.9204
25.6754
24.353
22.9749
21.57
20.1707
18.8073
17.5044
16.2777
15.1342
14.0729
13.0873
12.1674
11.302
10.4802
9.69188
8.92875
8.18396
7.45225
6.72962
6.01317
5.30081
4.5911
3.88304
3.17599
2.46955
1.76347
1.05768
0.352226
34.8841
34.6452
34.2701
33.7833
33.2054
32.5493
31.8207
31.0193
30.1398
29.1745
28.1158
26.9596
25.7091
24.3767
22.9853
21.5658
20.1527
18.7787
17.4692
16.2403
15.0981
14.0405
13.0599
12.1453
11.2849
10.4674
9.68269
8.92231
8.1796
7.44938
6.7278
6.01206
5.30017
4.59076
3.88289
3.17594
2.46953
1.76345
1.05762
0.352126
35.0473
34.7662
34.3612
33.8548
33.2657
32.6051
31.8773
31.0804
30.2073
29.248
28.1921
27.0329
25.7714
24.4201
23.0036
21.5564
20.1176
18.7238
17.4024
16.1694
15.0298
13.9792
13.0079
12.1032
11.2522
10.4428
9.66473
8.90956
8.17078
7.44343
6.7239
6.00958
5.29865
4.58986
3.88239
3.17568
2.4694
1.76337
1.05754
0.352039
35.2323
34.9091
34.4727
33.9454
33.3447
32.6804
31.9555
31.1661
30.3028
29.3524
28.3008
27.1372
25.8601
24.4812
23.0281
21.5407
20.0651
18.6431
17.3052
16.0672
14.9319
13.8919
12.9342
12.0438
11.2061
10.4082
9.63944
8.89158
8.15831
7.43499
6.71833
6.006
5.29642
4.58852
3.88162
3.17526
2.46918
1.76325
1.05746
0.351985
35.4198
35.0584
34.5924
34.0453
33.4342
32.7679
32.048
31.2688
30.4184
29.4798
28.434
27.2657
25.9692
24.556
23.057
21.5193
19.9977
18.5413
17.1837
15.9408
14.8118
13.7855
12.845
11.9723
11.1508
10.3668
9.60932
8.87021
8.14349
7.42496
6.71169
6.00172
5.29373
4.5869
3.88067
3.17474
2.46891
1.76312
1.05739
0.351967
35.5927
35.1992
34.7077
34.1437
33.5242
32.8576
32.1444
31.3773
30.5416
29.6166
28.5782
27.4054
26.0885
24.6376
23.0876
21.494
19.9219
18.4282
17.0503
15.8031
14.6823
13.6717
12.7502
11.8967
11.0927
10.3235
9.57788
8.84795
8.1281
7.41455
6.70481
5.99728
5.29095
4.58521
3.87969
3.1742
2.46863
1.76299
1.05735
0.351976
35.7364
35.3181
34.8067
34.2296
33.6041
32.9385
32.2325
31.4774
30.6565
29.7452
28.7147
27.5386
26.2026
24.7157
23.1164
21.4686
19.8479
18.3189
16.9226
15.6724
14.5603
13.5653
12.6622
11.8269
11.0393
10.2838
9.54924
8.82774
8.11414
7.40512
6.69858
5.99327
5.28843
4.58368
3.8788
3.17371
2.46838
1.76288
1.05733
0.352002
35.839
35.404
34.879
34.293
33.6639
32.9998
32.2999
31.5547
30.7457
29.8458
28.8223
27.6442
26.2935
24.7781
23.1392
21.4478
19.7881
18.2314
16.8211
15.5695
14.4649
13.4826
12.5942
11.7733
10.9984
10.2536
9.52743
8.81238
8.10356
7.39799
6.69388
5.99024
5.28654
4.58253
3.87813
3.17334
2.4682
1.76281
1.05732
0.352029
35.8925
35.449
34.9172
34.3268
33.696
33.0328
32.3364
31.5968
30.7946
29.9012
28.8817
27.7029
26.3442
24.8129
23.1519
21.436
19.7545
18.1826
16.7648
15.5125
14.4124
13.4373
12.5571
11.7441
10.9763
10.2373
9.51568
8.80411
8.09788
7.39416
6.69136
5.98862
5.28553
4.58192
3.87778
3.17315
2.46811
1.76277
1.05732
0.352046
35.8925
35.449
34.9172
34.3268
33.696
33.0328
32.3365
31.5969
30.7947
29.9012
28.8818
27.7029
26.3442
24.8129
23.1519
21.436
19.7546
18.1827
16.7649
15.5127
14.4125
13.4375
12.5572
11.7443
10.9764
10.2373
9.51576
8.80418
8.09794
7.39421
6.6914
5.98865
5.28555
4.58193
3.87779
3.17315
2.46811
1.76278
1.05732
0.352047
35.8391
35.4041
34.8791
34.2931
33.664
32.9999
32.3
31.5548
30.7458
29.8459
28.8223
27.6442
26.2935
24.778
23.1392
21.4479
19.7883
18.2317
16.8214
15.5698
14.4653
13.483
12.5946
11.7736
10.9988
10.2539
9.52767
8.81258
8.10373
7.39812
6.69399
5.99032
5.2866
4.58258
3.87817
3.17336
2.46822
1.76282
1.05732
0.352031
35.7365
35.3182
34.8068
34.2297
33.6043
32.9387
32.2327
31.4776
30.6567
29.7453
28.7149
27.5387
26.2026
24.7157
23.1165
21.4688
19.8481
18.3193
16.9231
15.673
14.5609
13.566
12.6628
11.8275
11.0398
10.2843
9.54963
8.82806
8.11441
7.40534
6.69875
5.9934
5.28854
4.58376
3.87886
3.17374
2.46841
1.7629
1.05734
0.352005
35.5929
35.1994
34.7079
34.1439
33.5244
32.8578
32.1446
31.3775
30.5419
29.6168
28.5784
27.4056
26.0885
24.6376
23.0877
21.4942
19.9223
18.4287
17.051
15.8039
14.6831
13.6725
12.751
11.8974
11.0934
10.324
9.57839
8.84838
8.12845
7.41483
6.70503
5.99745
5.29108
4.58531
3.87976
3.17425
2.46867
1.76301
1.05736
0.351981
35.42
35.0587
34.5926
34.0456
33.4344
32.7681
32.0482
31.2691
30.4187
29.48
28.4342
27.2658
25.9693
24.5562
23.0572
21.5196
19.9982
18.5419
17.1846
15.9417
14.8128
13.7865
12.846
11.9732
11.1516
10.3675
9.60992
8.87071
8.14391
7.4253
6.71196
6.00193
5.29389
4.58702
3.88076
3.1748
2.46895
1.76314
1.05741
0.351972
35.2325
34.9094
34.4729
33.9457
33.3449
32.6807
31.9558
31.1664
30.3031
29.3527
28.301
27.1374
25.8603
24.4814
23.0284
21.5412
20.0657
18.6439
17.3061
16.0683
14.933
13.893
12.9352
12.0448
11.207
10.4089
9.6401
8.89214
8.15877
7.43536
6.71862
6.00622
5.29659
4.58865
3.88171
3.17532
2.46922
1.76327
1.05747
0.35199
35.0476
34.7665
34.3615
33.8551
33.266
32.6054
31.8776
31.0807
30.2076
29.2483
28.1923
27.0331
25.7716
24.4204
23.0039
21.5568
20.1183
18.7246
17.4034
16.1705
15.0309
13.9804
13.009
12.1043
11.2531
10.4436
9.66542
8.91015
8.17126
7.44382
6.72421
6.00981
5.29883
4.58999
3.88248
3.17574
2.46944
1.76339
1.05755
0.352042
34.8844
34.6455
34.2704
33.7836
33.2057
32.5496
31.8211
31.0196
30.1401
29.1748
28.116
26.9599
25.7093
24.377
22.9857
21.5663
20.1534
18.7795
17.4702
16.2414
15.0992
14.0417
13.061
12.1463
11.2859
10.4682
9.68339
8.9229
8.18008
7.44976
6.7281
6.01229
5.30034
4.59088
3.88297
3.17599
2.46956
1.76347
1.05763
0.352127
34.7641
34.5619
34.2109
33.7394
33.1703
32.5183
31.7904
30.987
30.1043
29.1357
28.0753
26.9206
25.6757
24.3533
22.9753
21.5706
20.1714
18.8082
17.5054
16.2788
15.1353
14.074
13.0884
12.1684
11.3029
10.481
9.69256
8.92931
8.18443
7.45262
6.72991
6.01339
5.30097
4.59121
3.88312
3.17604
2.46957
1.76348
1.05768
0.352224
34.7085
34.5318
34.1947
33.7309
33.1659
32.5161
31.789
30.9857
30.1025
29.1332
28.0722
26.9172
25.6725
24.351
22.9745
21.5714
20.1737
18.8116
17.5091
16.2823
15.1382
14.0761
13.0896
12.1689
11.3028
10.4805
9.69191
8.92858
8.1837
7.45195
6.72933
6.0129
5.30058
4.5909
3.88287
3.17585
2.46943
1.76338
1.05764
0.35227
34.7639
34.5616
34.2106
33.7391
33.17
32.518
31.7901
30.9867
30.104
29.1354
28.075
26.9204
25.6754
24.353
22.9749
21.57
20.1707
18.8073
17.5044
16.2777
15.1342
14.0729
13.0873
12.1674
11.302
10.4802
9.69189
8.92875
8.18396
7.45225
6.72962
6.01317
5.30081
4.5911
3.88304
3.17599
2.46955
1.76347
1.05768
0.352226
34.8074
34.5668
34.197
33.7167
33.1433
32.4886
31.7582
30.9524
30.0675
29.0977
28.0378
26.8858
25.6463
24.332
22.9641
21.5703
20.1817
18.8276
17.5313
16.3086
15.1663
14.1041
13.1158
12.1924
11.3232
10.4975
9.70569
8.93949
8.19215
7.45837
6.73412
6.01643
5.30314
4.59273
3.88418
3.17678
2.4701
1.76386
1.05794
0.352301
34.9236
34.6371
34.2384
33.7407
33.1571
32.4967
31.7638
30.9576
30.0735
29.105
28.0462
26.8945
25.6539
24.3369
22.9651
21.567
20.1747
18.8181
17.521
16.2989
15.1583
14.0981
13.1121
12.1905
11.3227
10.498
9.70683
8.94093
8.19366
7.45981
6.73541
6.01753
5.30405
4.59347
3.88476
3.17723
2.47043
1.76409
1.05806
0.352283
35.0899
34.7515
34.3186
33.7988
33.2021
32.5352
31.8006
30.9961
30.1154
29.1506
28.0935
26.9398
25.6921
24.3628
22.9746
21.5587
20.1501
18.7813
17.4773
16.2535
15.1153
14.0603
13.0807
12.1657
11.304
10.4844
9.69735
8.93457
8.18957
7.45732
6.73399
6.01681
5.30375
4.59343
3.88485
3.17737
2.47058
1.7642
1.05812
0.352266
35.2818
34.8916
34.4231
33.8799
33.2694
32.5964
31.8617
31.0612
30.1867
29.2277
28.1731
27.0156
25.7557
24.4056
22.9902
21.5446
20.109
18.72
17.4044
16.1775
15.043
13.9961
13.0268
12.1226
11.2707
10.4597
9.6795
8.92208
8.1811
7.45174
6.73045
6.01465
5.30251
4.59276
3.88454
3.17727
2.47058
1.76424
1.05815
0.352276
35.4775
35.0399
34.5378
33.9725
33.3492
32.6715
31.9384
31.1441
30.2783
29.3271
28.2759
27.1137
25.8381
24.4609
23.0097
21.5253
20.0546
18.6396
17.3095
16.0791
14.9497
13.9135
12.9575
12.0669
11.2277
10.4275
9.65617
8.9056
8.16976
7.44415
6.72551
6.01154
5.30063
4.59168
3.88396
3.17699
2.47047
1.76422
1.05817
0.352315
35.6583
35.1803
34.6494
34.0648
33.431
32.7502
32.0203
31.2338
30.3781
29.4362
28.3895
27.2226
25.9299
24.5224
23.0309
21.5027
19.9928
18.5491
17.2036
15.9701
14.8472
13.8232
12.882
12.0066
11.1812
10.3927
9.63086
8.88768
8.15739
7.43582
6.72004
6.00805
5.29848
4.59042
3.88326
3.17664
2.47032
1.76418
1.05819
0.352376
35.8084
35.2991
34.7454
34.1459
33.5042
32.8218
32.0958
31.3174
30.472
29.5396
28.4979
27.3272
26.0186
24.5819
23.0511
21.48
19.9321
18.4612
17.1017
15.8662
14.7501
13.7383
12.8114
11.9503
11.1379
10.3604
9.60739
8.87106
8.1459
7.42806
6.71494
6.00478
5.29645
4.58921
3.88258
3.17628
2.47016
1.76413
1.05821
0.352443
35.9157
35.385
34.8157
34.2059
33.5591
32.8762
32.1538
31.3821
30.5451
29.6207
28.5835
27.4105
26.0896
24.6298
23.0672
21.4614
19.8829
18.3907
17.0206
15.7841
14.674
13.672
12.7566
11.9068
11.1045
10.3355
9.58937
8.85831
8.13709
7.42211
6.71102
6.00227
5.29489
4.58827
3.88205
3.176
2.47003
1.7641
1.05823
0.3525
35.9716
35.43
34.8528
34.2379
33.5885
32.9056
32.1853
31.4174
30.5852
29.6654
28.6309
27.4568
26.1293
24.6567
23.0763
21.4509
19.8552
18.3512
16.9756
15.7388
14.6321
13.6358
12.7268
11.8831
11.0864
10.3221
9.57962
8.85142
8.13233
7.41891
6.70891
6.00092
5.29405
4.58777
3.88176
3.17585
2.46996
1.76408
1.05824
0.352532
35.9716
35.43
34.8528
34.2379
33.5885
32.9056
32.1853
31.4175
30.5852
29.6654
28.6309
27.4568
26.1293
24.6567
23.0763
21.4509
19.8553
18.3513
16.9757
15.7389
14.6322
13.6359
12.7269
11.8832
11.0865
10.3222
9.5797
8.85149
8.13239
7.41895
6.70894
6.00094
5.29407
4.58779
3.88177
3.17586
2.46997
1.76408
1.05824
0.352532
35.9158
35.3851
34.8158
34.206
33.5592
32.8763
32.1539
31.3822
30.5452
29.6208
28.5836
27.4105
26.0896
24.6298
23.0672
21.4615
19.8831
18.3909
17.0209
15.7845
14.6743
13.6724
12.757
11.9071
11.1048
10.3358
9.58959
8.8585
8.13724
7.42224
6.71112
6.00235
5.29495
4.58832
3.88208
3.17603
2.47005
1.7641
1.05823
0.352499
35.8086
35.2993
34.7456
34.146
33.5043
32.822
32.096
31.3176
30.4721
29.5397
28.498
27.3273
26.0186
24.582
23.0512
21.4802
19.9323
18.4616
17.1022
15.8667
14.7507
13.7388
12.812
11.9508
11.1383
10.3608
9.60774
8.87136
8.14615
7.42826
6.7151
6.00491
5.29655
4.58928
3.88263
3.17632
2.47018
1.76414
1.05821
0.352443
35.6585
35.1805
34.6496
34.065
33.4312
32.7504
32.0205
31.2341
30.3784
29.4364
28.3897
27.2227
25.93
24.5225
23.031
21.5029
19.9931
18.5496
17.2042
15.9708
14.8479
13.824
12.8828
12.0072
11.1818
10.3933
9.63133
8.88808
8.15772
7.43608
6.72026
6.00822
5.29861
4.59051
3.88333
3.17669
2.47035
1.76419
1.05819
0.352375
35.4777
35.0401
34.538
33.9727
33.3495
32.6718
31.9387
31.1444
30.2786
29.3273
28.2762
27.1139
25.8383
24.4611
23.0099
21.5256
20.0551
18.6402
17.3102
16.0799
14.9506
13.9144
12.9583
12.0677
11.2285
10.4282
9.65672
8.90607
8.17015
7.44447
6.72576
6.01174
5.30078
4.59179
3.88404
3.17705
2.47051
1.76424
1.05817
0.352314
35.282
34.8919
34.4233
33.8802
33.2697
32.5967
31.862
31.0615
30.187
29.228
28.1733
27.0158
25.756
24.4059
22.9905
21.545
20.1096
18.7207
17.4053
16.1784
15.044
13.9971
13.0277
12.1234
11.2715
10.4604
9.68012
8.92261
8.18153
7.45209
6.73073
6.01486
5.30267
4.59288
3.88463
3.17733
2.47061
1.76425
1.05815
0.352274
35.0902
34.7518
34.3188
33.7991
33.2024
32.5355
31.8009
30.9964
30.1158
29.1509
28.0938
26.9401
25.6924
24.3631
22.975
21.5592
20.1507
18.7821
17.4782
16.2545
15.1164
14.0613
13.0817
12.1667
11.3049
10.4852
9.69801
8.93512
8.19003
7.45769
6.73429
6.01703
5.30393
4.59355
3.88494
3.17743
2.47061
1.76422
1.05812
0.352263
34.9239
34.6373
34.2387
33.741
33.1573
32.497
31.7641
30.9579
30.0738
29.1053
28.0465
26.8948
25.6542
24.3373
22.9655
21.5676
20.1754
18.8189
17.522
16.3
15.1594
14.0992
13.1131
12.1915
11.3236
10.4988
9.7075
8.94149
8.19412
7.46018
6.73571
6.01776
5.30422
4.59359
3.88484
3.17728
2.47046
1.7641
1.05806
0.35228
34.8077
34.5671
34.1973
33.717
33.1436
32.4889
31.7585
30.9527
30.0679
29.0981
28.0381
26.8861
25.6466
24.3324
22.9645
21.5709
20.1824
18.8284
17.5323
16.3097
15.1674
14.1051
13.1169
12.1934
11.3241
10.4983
9.70634
8.94004
8.1926
7.45873
6.7344
6.01664
5.30329
4.59285
3.88426
3.17683
2.47012
1.76386
1.05793
0.352297
34.7641
34.5619
34.2109
33.7394
33.1703
32.5183
31.7904
30.987
30.1043
29.1357
28.0754
26.9207
25.6757
24.3533
22.9753
21.5706
20.1714
18.8081
17.5053
16.2787
15.1353
14.074
13.0883
12.1683
11.3029
10.4809
9.69251
8.92927
8.18439
7.45259
6.72988
6.01337
5.30095
4.5912
3.8831
3.17603
2.46956
1.76347
1.05767
0.352217
34.8841
34.6452
34.2701
33.7833
33.2054
32.5493
31.8207
31.0193
30.1398
29.1744
28.1157
26.9596
25.709
24.3767
22.9853
21.5657
20.1527
18.7787
17.4692
16.2403
15.0981
14.0405
13.0599
12.1453
11.285
10.4675
9.6827
8.92232
8.1796
7.44938
6.7278
6.01206
5.30017
4.59076
3.88289
3.17594
2.46953
1.76345
1.05762
0.352127
34.9236
34.6371
34.2384
33.7407
33.1571
32.4967
31.7638
30.9576
30.0734
29.105
28.0462
26.8945
25.6539
24.3369
22.9651
21.567
20.1747
18.8181
17.5211
16.299
15.1583
14.0982
13.1121
12.1905
11.3227
10.498
9.70684
8.94094
8.19367
7.45982
6.73542
6.01753
5.30405
4.59347
3.88476
3.17723
2.47043
1.76409
1.05806
0.352283
35.0355
34.6983
34.2669
33.7492
33.1536
32.4861
31.7489
30.9403
30.0552
29.087
28.0294
26.8798
25.6417
24.3275
22.9586
21.5638
20.1752
18.8225
17.5294
16.3106
15.1724
14.1135
13.1277
12.2054
11.3363
10.5099
9.7169
8.94923
8.20034
7.46507
6.73948
6.02063
5.30637
4.59519
3.88602
3.17815
2.47109
1.76455
1.05834
0.352315
35.202
34.8082
34.3387
33.7965
33.1859
32.5102
31.7697
30.9613
30.0785
29.1133
28.0578
26.9077
25.6651
24.3422
22.9615
21.554
20.1544
18.7945
17.4985
16.2808
15.1463
14.0925
13.1118
12.1944
11.3292
10.5058
9.7149
8.94864
8.20062
7.46582
6.74043
6.02161
5.30729
4.596
3.8867
3.1787
2.47152
1.76486
1.05852
0.352346
35.3984
34.9472
34.4383
33.8701
33.2439
32.5605
31.8185
31.0128
30.1355
29.1758
28.1234
26.9707
25.7178
24.3762
22.9706
21.5364
20.1134
18.7373
17.4336
16.2159
15.0868
14.0416
13.0707
12.1626
11.3056
10.489
9.7034
8.94107
8.19587
7.46301
6.73891
6.02091
5.30708
4.59607
3.88691
3.17896
2.47177
1.76507
1.05866
0.35241
35.6012
35.0966
34.5506
33.9577
33.317
32.6274
31.8858
31.0855
30.2162
29.2647
28.2166
27.0604
25.7928
24.4247
22.9837
21.5115
20.0555
18.6566
17.3423
16.1246
15.0032
13.9697
13.012
12.1167
11.271
10.4637
9.68553
8.92881
8.18772
7.45779
6.7357
6.01904
5.30609
4.59561
3.88677
3.17899
2.47188
1.7652
1.05878
0.352509
35.7899
35.2395
34.661
34.0468
33.394
32.7001
31.9607
31.1676
30.3084
29.3669
28.3246
27.1653
25.8813
24.4823
22.9991
21.4815
19.9865
18.5617
17.2361
16.0195
14.9075
13.8879
12.9453
12.0645
11.2315
10.4348
9.66486
8.91447
8.17803
7.45144
6.73167
6.01659
5.30468
4.59486
3.88642
3.17888
2.4719
1.76528
1.05889
0.352629
35.9474
35.3608
34.7568
34.1258
33.4638
32.7674
32.0312
31.2459
30.3973
29.4665
28.4312
27.27
25.9707
24.5409
23.0146
21.4505
19.9161
18.4661
17.1306
15.9165
14.8147
13.8092
12.8815
12.0147
11.1939
10.4072
9.64513
8.90071
8.16869
7.44526
6.72771
6.01414
5.30322
4.59405
3.88602
3.17872
2.47187
1.76533
1.05898
0.352749
36.0601
35.4488
34.8271
34.1846
33.5166
32.819
32.086
31.3073
30.4677
29.5462
28.5174
27.3558
26.0451
24.5903
23.0278
21.4242
19.8569
18.387
17.0447
15.8336
14.7409
13.7471
12.8315
11.9758
11.1646
10.3857
9.62976
8.88999
8.16139
7.44042
6.72459
6.01219
5.30206
4.5934
3.88568
3.17857
2.47184
1.76536
1.05904
0.352845
36.1189
35.4949
34.8643
34.216
33.545
32.847
32.1159
31.3411
30.5067
29.5906
28.5658
27.4046
26.0879
24.6191
23.0355
21.4088
19.8226
18.3417
16.9961
15.7873
14.7
13.7129
12.8041
11.9546
11.1486
10.374
9.6214
8.88416
8.15742
7.43778
6.72289
6.01113
5.30142
4.59304
3.8855
3.17849
2.47182
1.76537
1.05907
0.352898
36.1189
35.4949
34.8643
34.216
33.545
32.8471
32.1159
31.3411
30.5067
29.5906
28.5658
27.4046
26.0879
24.6191
23.0355
21.4089
19.8227
18.3418
16.9963
15.7874
14.7002
13.713
12.8042
11.9547
11.1487
10.3741
9.62147
8.88422
8.15747
7.43782
6.72292
6.01116
5.30144
4.59305
3.88551
3.1785
2.47182
1.76537
1.05907
0.352897
36.0602
35.4489
34.8272
34.1847
33.5167
32.8191
32.0861
31.3074
30.4678
29.5463
28.5174
27.3558
26.0451
24.5903
23.0278
21.4243
19.8571
18.3872
17.045
15.834
14.7413
13.7474
12.8319
11.9761
11.1649
10.3859
9.62997
8.89017
8.16154
7.44054
6.72468
6.01227
5.30212
4.59344
3.88572
3.17859
2.47186
1.76536
1.05904
0.352843
35.9475
35.361
34.757
34.126
33.4639
32.7675
32.0314
31.246
30.3975
29.4667
28.4313
27.27
25.9708
24.5409
23.0147
21.4506
19.9163
18.4665
17.1311
15.917
14.8153
13.8098
12.8821
12.0152
11.1944
10.4076
9.64547
8.901
8.16893
7.44545
6.72787
6.01426
5.30332
4.59413
3.88607
3.17875
2.4719
1.76534
1.05898
0.352745
35.7901
35.2396
34.6612
34.047
33.3942
32.7003
31.9609
31.1678
30.3086
29.3671
28.3248
27.1654
25.8814
24.4823
22.9992
21.4817
19.9869
18.5622
17.2367
16.0202
14.9082
13.8886
12.946
12.0651
11.2321
10.4353
9.66531
8.91485
8.17835
7.4517
6.73188
6.01676
5.3048
4.59495
3.88649
3.17893
2.47193
1.7653
1.05889
0.352624
35.6015
35.0969
34.5508
33.958
33.3172
32.6277
31.8861
31.0858
30.2165
29.265
28.2169
27.0606
25.793
24.4249
22.9839
21.5118
20.0559
18.6572
17.3431
16.1254
15.004
13.9706
13.0128
12.1174
11.2717
10.4644
9.68607
8.92927
8.1881
7.45809
6.73595
6.01924
5.30623
4.59572
3.88685
3.17904
2.47192
1.76522
1.05879
0.352502
35.3987
34.9475
34.4386
33.8704
33.2442
32.5608
31.8188
31.0132
30.1358
29.1762
28.1237
26.971
25.718
24.3764
22.9709
21.5368
20.114
18.738
17.4345
16.2168
15.0878
14.0426
13.0716
12.1635
11.3064
10.4897
9.704
8.94158
8.19629
7.46335
6.73918
6.02112
5.30725
4.59619
3.88699
3.17901
2.47181
1.76509
1.05867
0.352402
35.2023
34.8085
34.339
33.7967
33.1861
32.5105
31.77
30.9616
30.0788
29.1136
28.0581
26.9079
25.6654
24.3425
22.9619
21.5545
20.155
18.7953
17.4994
16.2818
15.1473
14.0935
13.1128
12.1953
11.33
10.5065
9.71554
8.94918
8.20106
7.46618
6.74072
6.02183
5.30746
4.59612
3.88679
3.17876
2.47156
1.76488
1.05852
0.352337
35.0358
34.6986
34.2671
33.7495
33.1539
32.4864
31.7492
30.9406
30.0555
29.0873
28.0298
26.8801
25.642
24.3278
22.9591
21.5644
20.1758
18.8233
17.5303
16.3117
15.1735
14.1146
13.1287
12.2064
11.3372
10.5107
9.71755
8.94977
8.20078
7.46543
6.73976
6.02084
5.30653
4.5953
3.8861
3.1782
2.47112
1.76456
1.05833
0.352306
34.9239
34.6373
34.2387
33.741
33.1573
32.497
31.7641
30.9579
30.0738
29.1053
28.0465
26.8948
25.6542
24.3372
22.9655
21.5676
20.1754
18.819
17.522
16.3
15.1594
14.0992
13.1131
12.1915
11.3236
10.4988
9.70748
8.94147
8.1941
7.46016
6.73568
6.01774
5.3042
4.59357
3.88483
3.17727
2.47045
1.7641
1.05806
0.352273
34.8844
34.6455
34.2704
33.7836
33.2057
32.5496
31.8211
31.0196
30.1401
29.1748
28.116
26.9599
25.7093
24.377
22.9857
21.5663
20.1534
18.7795
17.4702
16.2414
15.0992
14.0416
13.0609
12.1463
11.2858
10.4682
9.68331
8.92282
8.18
7.4497
6.72804
6.01224
5.3003
4.59084
3.88294
3.17596
2.46954
1.76344
1.0576
0.352111
35.0473
34.7662
34.3612
33.8548
33.2657
32.605
31.8773
31.0804
30.2073
29.2479
28.1919
27.0327
25.7713
24.42
23.0035
21.5563
20.1176
18.7238
17.4024
16.1695
15.0298
13.9793
13.008
12.1033
11.2523
10.4429
9.66476
8.90958
8.17079
7.44344
6.72391
6.00958
5.29865
4.58987
3.88239
3.17568
2.4694
1.76337
1.05754
0.35204
35.0899
34.7515
34.3186
33.7988
33.2021
32.5352
31.8006
30.996
30.1154
29.1505
28.0934
26.9397
25.692
24.3627
22.9746
21.5587
20.1501
18.7813
17.4774
16.2536
15.1154
14.0604
13.0807
12.1658
11.304
10.4845
9.69737
8.93458
8.18958
7.45732
6.734
6.01681
5.30376
4.59343
3.88485
3.17737
2.47058
1.76421
1.05812
0.352266
35.202
34.8082
34.3387
33.7965
33.1859
32.5102
31.7697
30.9612
30.0784
29.1132
28.0578
26.9076
25.6651
24.3422
22.9615
21.554
20.1544
18.7945
17.4985
16.2808
15.1463
14.0925
13.1119
12.1944
11.3292
10.5058
9.71491
8.94865
8.20062
7.46582
6.74043
6.02161
5.30729
4.596
3.8867
3.1787
2.47152
1.76486
1.05852
0.352346
35.3702