# vtk DataFile Version 2.0
I need something to put here
ASCII

DATASET STRUCTURED_GRID
DIMENSIONS 41 21 21
POINTS 18081 float
0.000000 0.000000 0.000000
0.100000 0.000000 0.000000
0.200000 0.000000 0.000000
0.300000 0.000000 0.000000
0.400000 0.000000 0.000000
0.500000 0.000000 0.000000
0.600000 0.000000 0.000000
0.700000 0.000000 0.000000
0.800000 0.000000 0.000000
0.900000 0.000000 0.000000
1.000000 0.000000 0.000000
1.100000 0.000000 0.000000
1.200000 0.000000 0.000000
1.300000 0.000000 0.000000
1.400000 0.000000 0.000000
1.500000 0.000000 0.000000
1.600000 0.000000 0.000000
1.700000 0.000000 0.000000
1.800000 0.000000 0.000000
1.900000 0.000000 0.000000
2.000000 0.000000 0.000000
2.100000 0.000000 0.000000
2.200000 0.000000 0.000000
2.300000 0.000000 0.000000
2.400000 0.000000 0.000000
2.500000 0.000000 0.000000
2.600000 0.000000 0.000000
2.700000 0.000000 0.000000
2.800000 0.000000 0.000000
2.900000 0.000000 0.000000
3.000000 0.000000 0.000000
3.100000 0.000000 0.000000
3.200000 0.000000 0.000000
3.300000 0.000000 0.000000
3.400000 0.000000 0.000000
3.500000 0.000000 0.000000
3.600000 0.000000 0.000000
3.700000 0.000000 0.000000
3.800000 0.000000 0.000000
3.900000 0.000000 0.000000
4.000000 0.000000 0.000000
0.000000 0.100000 0.000000
0.100000 0.100000 0.000000
0.200000 0.100000 0.000000
0.300000 0.100000 0.000000
0.400000 0.100000 0.000000
0.500000 0.100000 0.000000
0.600000 0.100000 0.000000
0.700000 0.100000 0.000000
0.800000 0.100000 0.000000
0.900000 0.100000 0.000000
1.000000 0.100000 0.000000
1.100000 0.100000 0.000000
1.200000 0.100000 0.000000
1.300000 0.100000 0.000000
1.400000 0.100000 0.000000
1.500000 0.100000 0.000000
1.600000 0.100000 0.000000
1.700000 0.100000 0.000000
1.800000 0.100000 0.000000
1.900000 0.100000 0.000000
2.000000 0.100000 0.000000
2.100000 0.100000 0.000000
2.200000 0.100000 0.000000
2.300000 0.100000 0.000000
2.400000 0.100000 0.000000
2.500000 0.100000 0.000000
2.600000 0.100000 0.000000
2.700000 0.100000 0.000000
2.800000 0.100000 0.000000
2.900000 0.100000 0.000000
3.000000 0.100000 0.000000
3.100000 0.100000 0.000000
3.200000 0.100000 0.000000
3.300000 0.100000 0.000000
3.400000 0.100000 0.000000
3.500000 0.100000 0.000000
3.600000 0.100000 0.000000
3.700000 0.100000 0.000000
3.800000 0.100000 0.000000
3.900000 0.100000 0.000000
4.000000 0.100000 0.000000
0.000000 0.200000 0.000000
0.100000 0.200000 0.000000
0.200000 0.200000 0.000000
0.300000 0.200000 0.000000
0.400000 0.200000 0.000000
0.500000 0.200000 0.000000
0.600000 0.200000 0.000000
0.700000 0.200000 0.000000
0.800000 0.200000 0.000000
0.900000 0.200000 0.000000
1.000000 0.200000 0.000000
1.100000 0.200000 0.000000
1.200000 0.200000 0.000000
1.300000 0.200000 0.000000
1.400000 0.200000 0.000000
1.500000 0.200000 0.000000
1.600000 0.200000 0.000000
1.700000 0.200000 0.000000
1.800000 0.200000 0.000000
1.900000 0.200000 0.000000
2.000000 0.200000 0.000000
2.100000 0.200000 0.000000
2.200000 0.200000 0.000000
2.300000 0.200000 0.000000
2.400000 0.200000 0.000000
2.500000 0.200000 0.000000
2.600000 0.200000 0.000000
2.700000 0.200000 0.000000
2.800000 0.200000 0.000000
2.900000 0.200000 0.000000
3.000000 0.200000 0.000000
3.100000 0.200000 0.000000
3.200000 0.200000 0.000000
3.300000 0.200000 0.000000
3.400000 0.200000 0.000000
3.500000 0.200000 0.000000
3.600000 0.200000 0.000000
3.700000 0.200000 0.000000
3.800000 0.200000 0.000000
3.900000 0.200000 0.000000
4.000000 0.200000 0.000000
0.000000 0.300000 0.000000
0.100000 0.300000 0.000000
0.200000 0.300000 0.000000
0.300000 0.300000 0.000000
0.400000 0.300000 0.000000
0.500000 0.300000 0.000000
0.600000 0.300000 0.000000
0.700000 0.300000 0.000000
0.800000 0.300000 0.000000
0.900000 0.300000 0.000000
1.000000 0.300000 0.000000
1.100000 0.300000 0.000000
1.200000 0.300000 0.000000
1.300000 0.300000 0.000000
1.400000 0.300000 0.000000
1.500000 0.300000 0.000000
1.600000 0.300000 0.000000
1.700000 0.300000 0.000000
1.800000 0.300000 0.000000
1.900000 0.300000 0.000000
2.000000 0.300000 0.000000
2.100000 0.300000 0.000000
2.200000 0.300000 0.000000
2.300000 0.300000 0.000000
2.400000 0.300000 0.000000
2.500000 0.300000 0.000000
2.600000 0.300000 0.000000
2.700000 0.300000 0.000000
2.800000 0.300000 0.000000
2.900000 0.300000 0.000000
3.000000 0.300000 0.000000
3.100000 0.300000 0.000000
3.200000 0.300000 0.000000
3.300000 0.300000 0.000000
3.400000 0.300000 0.000000
3.500000 0.300000 0.000000
3.600000 0.300000 0.000000
3.700000 0.300000 0.000000
3.800000 0.300000 0.000000
3.900000 0.300000 0.000000
4.000000 0.300000 0.000000
0.000000 0.400000 0.000000
0.100000 0.400000 0.000000
0.200000 0.400000 0.000000
0.300000 0.400000 0.000000
0.400000 0.400000 0.000000
0.500000 0.400000 0.000000
0.600000 0.400000 0.000000
0.700000 0.400000 0.000000
0.800000 0.400000 0.000000
0.900000 0.400000 0.000000
1.000000 0.400000 0.000000
1.100000 0.400000 0.000000
1.200000 0.400000 0.000000
1.300000 0.400000 0.000000
1.400000 0.400000 0.000000
1.500000 0.400000 0.000000
1.600000 0.400000 0.000000
1.700000 0.400000 0.000000
1.800000 0.400000 0.000000
1.900000 0.400000 0.000000
2.000000 0.400000 0.000000
2.100000 0.400000 0.000000
2.200000 0.400000 0.000000
2.300000 0.400000 0.000000
2.400000 0.400000 0.000000
2.500000 0.400000 0.000000
2.600000 0.400000 0.000000
2.700000 0.400000 0.000000
2.800000 0.400000 0.000000
2.900000 0.400000 0.000000
3.000000 0.400000 0.000000
3.100000 0.400000 0.000000
3.200000 0.400000 0.000000
3.300000 0.400000 0.000000
3.400000 0.400000 0.000000
3.500000 0.400000 0.000000
3.600000 0.400000 0.000000
3.700000 0.400000 0.000000
3.800000 0.400000 0.000000
3.900000 0.400000 0.000000
4.000000 0.400000 0.000000
0.000000 0.500000 0.000000
0.100000 0.500000 0.000000
0.200000 0.500000 0.000000
0.300000 0.500000 0.000000
0.400000 0.500000 0.000000
0.500000 0.500000 0.000000
0.600000 0.500000 0.000000
0.700000 0.500000 0.000000
0.800000 0.500000 0.000000
0.900000 0.500000 0.000000
1.000000 0.500000 0.000000
1.100000 0.500000 0.000000
1.200000 0.500000 0.000000
1.300000 0.500000 0.000000
1.400000 0.500000 0.000000
1.500000 0.500000 0.000000
1.600000 0.500000 0.000000
1.700000 0.500000 0.000000
1.800000 0.500000 0.000000
1.900000 0.500000 0.000000
2.000000 0.500000 0.000000
2.100000 0.500000 0.000000
2.200000 0.500000 0.000000
2.300000 0.500000 0.000000
2.400000 0.500000 0.000000
2.500000 0.500000 0.000000
2.600000 0.500000 0.000000
2.700000 0.500000 0.000000
2.800000 0.500000 0.000000
2.900000 0.500000 0.000000
3.000000 0.500000 0.000000
3.100000 0.500000 0.000000
3.200000 0.500000 0.000000
3.300000 0.500000 0.000000
3.400000 0.500000 0.000000
3.500000 0.500000 0.000000
3.600000 0.500000 0.000000
3.700000 0.500000 0.000000
3.800000 0.500000 0.000000
3.900000 0.500000 0.000000
4.000000 0.500000 0.000000
0.000000 0.600000 0.000000
0.100000 0.600000 0.000000
0.200000 0.600000 0.000000
0.300000 0.600000 0.000000
0.400000 0.600000 0.000000
0.500000 0.600000 0.000000
0.600000 0.600000 0.000000
0.700000 0.600000 0.000000
0.800000 0.600000 0.000000
0.900000 0.600000 0.000000
1.000000 0.600000 0.000000
1.100000 0.600000 0.000000
1.200000 0.600000 0.000000
1.300000 0.600000 0.000000
1.400000 0.600000 0.000000
1.500000 0.600000 0.000000
1.600000 0.600000 0.000000
1.700000 0.600000 0.000000
1.800000 0.600000 0.000000
1.900000 0.600000 0.000000
2.000000 0.600000 0.000000
2.100000 0.600000 0.000000
2.200000 0.600000 0.000000
2.300000 0.600000 0.000000
2.400000 0.600000 0.000000
2.500000 0.600000 0.000000
2.600000 0.600000 0.000000
2.700000 0.600000 0.000000
2.800000 0.600000 0.000000
2.900000 0.600000 0.000000
3.000000 0.600000 0.000000
3.100000 0.600000 0.000000
3.200000 0.600000 0.000000
3.300000 0.600000 0.000000
3.400000 0.600000 0.000000
3.500000 0.600000 0.000000
3.600000 0.600000 0.000000
3.700000 0.600000 0.000000
3.800000 0.600000 0.000000
3.900000 0.600000 0.000000
4.000000 0.600000 0.000000
0.000000 0.700000 0.000000
0.100000 0.700000 0.000000
0.200000 0.700000 0.000000
0.300000 0.700000 0.000000
0.400000 0.700000 0.000000
0.500000 0.700000 0.000000
0.600000 0.700000 0.000000
0.700000 0.700000 0.000000
0.800000 0.700000 0.000000
0.900000 0.700000 0.000000
1.000000 0.700000 0.000000
1.100000 0.700000 0.000000
1.200000 0.700000 0.000000
1.300000 0.700000 0.000000
1.400000 0.700000 0.000000
1.500000 0.700000 0.000000
1.600000 0.700000 0.000000
1.700000 0.700000 0.000000
1.800000 0.700000 0.000000
1.900000 0.700000 0.000000
2.000000 0.700000 0.000000
2.100000 0.700000 0.000000
2.200000 0.700000 0.000000
2.300000 0.700000 0.000000
2.400000 0.700000 0.000000
2.500000 0.700000 0.000000
2.600000 0.700000 0.000000
2.700000 0.700000 0.000000
2.800000 0.700000 0.000000
2.900000 0.700000 0.000000
3.000000 0.700000 0.000000
3.100000 0.700000 0.000000
3.200000 0.700000 0.000000
3.300000 0.700000 0.000000
3.400000 0.700000 0.000000
3.500000 0.700000 0.000000
3.600000 0.700000 0.000000
3.700000 0.700000 0.000000
3.800000 0.700000 0.000000
3.900000 0.700000 0.000000
4.000000 0.700000 0.000000
0.000000 0.800000 0.000000
0.100000 0.800000 0.000000
0.200000 0.800000 0.000000
0.300000 0.800000 0.000000
0.400000 0.800000 0.000000
0.500000 0.800000 0.000000
0.600000 0.800000 0.000000
0.700000 0.800000 0.000000
0.800000 0.800000 0.000000
0.900000 0.800000 0.000000
1.000000 0.800000 0.000000
1.100000 0.800000 0.000000
1.200000 0.800000 0.000000
1.300000 0.800000 0.000000
1.400000 0.800000 0.000000
1.500000 0.800000 0.000000
1.600000 0.800000 0.000000
1.700000 0.800000 0.000000
1.800000 0.800000 0.000000
1.900000 0.800000 0.000000
2.000000 0.800000 0.000000
2.100000 0.800000 0.000000
2.200000 0.800000 0.000000
2.300000 0.800000 0.000000
2.400000 0.800000 0.000000
2.500000 0.800000 0.000000
2.600000 0.800000 0.000000
2.700000 0.800000 0.000000
2.800000 0.800000 0.000000
2.900000 0.800000 0.000000
3.000000 0.800000 0.000000
3.100000 0.800000 0.000000
3.200000 0.800000 0.000000
3.300000 0.800000 0.000000
3.400000 0.800000 0.000000
3.500000 0.800000 0.000000
3.600000 0.800000 0.000000
[...]
CELL_DATA 16000
SCALARS pressure float 1
LOOKUP_TABLE default
34.6359
34.4591
34.122
33.6585
33.0941
32.4452
31.7197
30.9185
30.0381
29.0722
28.0152
26.8645
25.6244
24.3074
22.9352
21.5363
20.1427
18.7844
17.4858
16.2627
15.1221
14.0631
13.0794
12.1611
11.297
10.4762
9.68877
8.92634
8.18214
7.45088
6.72861
6.01243
5.30028
4.59072
3.88278
3.17582
2.46943
1.76341
1.05767
0.352287
34.6916
34.4892
34.1382
33.667
33.0985
32.4475
31.721
30.9198
30.0398
29.0747
28.0183
26.868
25.6276
24.3097
22.9361
21.5355
20.1403
18.781
17.482
16.2591
15.1192
14.0611
13.0782
12.1606
11.297
10.4766
9.6894
8.92705
8.18284
7.45152
6.72917
6.0129
5.30066
4.59103
3.88302
3.176
2.46956
1.76349
1.0577
0.35224
34.8118
34.5728
34.1976
33.7111
33.1336
32.4785
31.7515
30.9521
30.0754
29.1135
28.0588
26.9072
25.6613
24.3335
22.9466
21.5313
20.1224
18.7524
17.4469
16.2218
15.0832
14.0289
13.051
12.1387
11.2801
10.464
9.68032
8.9207
8.17853
7.44869
6.72738
6.01181
5.30004
4.5907
3.88287
3.17594
2.46955
1.76348
1.05765
0.352142
34.9749
34.6936
34.2885
33.7823
33.1936
32.5339
31.8076
31.0127
30.1424
29.1866
28.1348
26.9803
25.7237
24.3771
22.9651
21.522
20.0874
18.6976
17.3802
16.1512
15.0152
13.9679
12.9994
12.097
11.2477
10.4397
9.66257
8.90812
8.16984
7.44284
6.72354
6.00937
5.29854
4.58982
3.88238
3.17569
2.46942
1.7634
1.05757
0.352057
35.1596
34.8362
34.3997
33.8725
33.2721
32.6087
31.8851
31.0976
30.2371
29.2903
28.2431
27.0845
25.8124
24.4385
22.9898
21.5066
20.0349
18.617
17.2832
16.0493
14.9178
13.8812
12.9263
12.0381
11.2021
10.4054
9.63759
8.89037
8.15754
7.43452
6.71805
6.00585
5.29635
4.5885
3.88163
3.17528
2.46921
1.76328
1.05749
0.352004
35.3467
34.9852
34.5189
33.9719
33.361
32.6954
31.9767
31.1995
30.3518
29.4169
28.3758
27.2127
25.9217
24.5136
23.019
21.4853
19.9676
18.5152
17.1619
15.9232
14.7983
13.7755
12.8377
11.9672
11.1473
10.3645
9.60783
8.86927
8.14293
7.42464
6.71152
6.00164
5.29372
4.58691
3.8807
3.17478
2.46895
1.76315
1.05743
0.351986
35.5193
35.1256
34.6338
34.0698
33.4504
32.7844
32.0723
31.307
30.4741
29.5529
28.5195
27.3523
26.0411
24.5955
23.05
21.4602
19.8918
18.4021
17.0287
15.7859
14.6693
13.6623
12.7436
11.8923
11.0898
10.3216
9.57677
8.84731
8.12775
7.41438
6.70474
5.99728
5.29098
4.58525
3.87974
3.17425
2.46868
1.76303
1.05739
0.351996
35.6626
35.2441
34.7324
34.1551
33.5298
32.8646
32.1596
31.4063
30.5881
29.6807
28.6555
27.4854
26.1554
24.674
23.0791
21.435
19.8177
18.2928
16.901
15.6556
14.5479
13.5566
12.6564
11.8232
11.037
10.2825
9.54848
8.82735
8.11398
7.40509
6.69862
5.99333
5.28851
4.58376
3.87887
3.17377
2.46844
1.76293
1.05736
0.352022
35.7649
35.3296
34.8044
34.2183
33.5892
32.9254
32.2263
31.4829
30.6766
29.7807
28.7626
27.5908
26.2465
24.7366
23.1021
21.4142
19.7579
18.2053
16.7997
15.5529
14.4529
13.4744
12.5888
11.77
10.9965
10.2526
9.52694
8.81219
8.10355
7.39806
6.69399
5.99035
5.28665
4.58263
3.87821
3.17341
2.46826
1.76286
1.05736
0.352049
35.8182
35.3745
34.8424
34.2518
33.621
32.9581
32.2626
31.5246
30.7252
29.8358
28.8219
27.6494
26.2974
24.7717
23.115
21.4025
19.7243
18.1564
16.7433
15.4961
14.4006
13.4294
12.552
11.7411
10.9746
10.2364
9.51533
8.80404
8.09795
7.3943
6.69151
5.98877
5.28566
4.58203
3.87787
3.17322
2.46817
1.76282
1.05735
0.352066
35.8183
35.3745
34.8424
34.2518
33.621
32.9581
32.2626
31.5247
30.7252
29.8358
28.8219
27.6494
26.2973
24.7716
23.1149
21.4025
19.7244
18.1565
16.7434
15.4963
14.4008
13.4295
12.5522
11.7412
10.9747
10.2365
9.51541
8.80411
8.09801
7.39435
6.69155
5.9888
5.28568
4.58205
3.87788
3.17323
2.46817
1.76283
1.05736
0.352067
35.765
35.3297
34.8045
34.2183
33.5892
32.9254
32.2264
31.483
30.6767
29.7808
28.7626
27.5908
26.2465
24.7366
23.1021
21.4143
19.7581
18.2055
16.8
15.5533
14.4533
13.4748
12.5893
11.7704
10.9969
10.2529
9.52719
8.81241
8.10373
7.39821
6.6941
5.99044
5.28672
4.58268
3.87825
3.17344
2.46828
1.76287
1.05736
0.352051
35.6627
35.2442
34.7325
34.1552
33.5299
32.8647
32.1597
31.4064
30.5882
29.6808
28.6555
27.4854
26.1554
24.6739
23.0791
21.4351
19.818
18.2932
16.9016
15.6563
14.5486
13.5573
12.657
11.8238
11.0375
10.283
9.54889
8.8277
8.11427
7.40532
6.6988
5.99348
5.28862
4.58384
3.87893
3.17381
2.46847
1.76294
1.05737
0.352026
35.5194
35.1257
34.634
34.0699
33.4506
32.7846
32.0724
31.3072
30.4743
29.5531
28.5196
27.3523
26.0411
24.5955
23.05
21.4604
19.8921
18.4026
17.0294
15.7867
14.6702
13.6632
12.7445
11.8931
11.0905
10.3223
9.57731
8.84776
8.12812
7.41468
6.70499
5.99747
5.29113
4.58536
3.87982
3.1743
2.46871
1.76305
1.0574
0.352001
35.3469
34.9853
34.5191
33.9721
33.3612
32.6956
31.9769
31.1996
30.352
29.417
28.3759
27.2127
25.9217
24.5136
23.0191
21.4855
19.9681
18.5158
17.1628
15.9242
14.7993
13.7765
12.8388
11.9681
11.1482
10.3652
9.60847
8.86981
8.14338
7.425
6.71181
6.00187
5.29389
4.58704
3.88079
3.17484
2.46899
1.76318
1.05744
0.351991
35.1597
34.8364
34.3998
33.8726
33.2723
32.6088
31.8852
31.0978
30.2373
29.2905
28.2432
27.0845
25.8124
24.4385
22.99
21.5069
20.0355
18.6178
17.2841
16.0504
14.919
13.8823
12.9274
12.0391
11.203
10.4062
9.6383
8.89097
8.15804
7.43492
6.71837
6.0061
5.29654
4.58864
3.88172
3.17535
2.46925
1.7633
1.0575
0.352008
34.975
34.6937
34.2887
33.7825
33.1938
32.5341
31.8077
31.0129
30.1425
29.1867
28.1349
26.9803
25.7237
24.3772
22.9653
21.5224
20.088
18.6984
17.3812
16.1523
15.0164
13.9692
13.0006
12.0981
11.2487
10.4405
9.66332
8.90875
8.17036
7.44326
6.72387
6.00963
5.29873
4.58996
3.88248
3.17576
2.46946
1.76342
1.05757
0.352059
34.812
34.5729
34.1978
33.7112
33.1338
32.4787
31.7516
30.9523
30.0755
29.1136
28.0589
26.9072
25.6614
24.3337
22.9469
21.5318
20.123
18.7533
17.448
16.223
15.0844
14.0301
13.0522
12.1398
11.2811
10.4649
9.68107
8.92134
8.17905
7.44911
6.7277
6.01206
5.30023
4.59083
3.88296
3.176
2.46959
1.76349
1.05765
0.352142
34.6918
34.4894
34.1384
33.6672
33.0987
32.4477
31.7212
30.92
30.04
29.0748
28.0184
26.8681
25.6277
24.3099
22.9364
21.536
20.141
18.7819
17.483
16.2603
15.1204
14.0623
13.0794
12.1617
11.298
10.4775
9.69013
8.92767
8.18334
7.45192
6.72948
6.01314
5.30084
4.59115
3.8831
3.17605
2.46959
1.7635
1.0577
0.352237
34.6361
34.4592
34.1222
33.6586
33.0943
32.4454
31.7199
30.9187
30.0382
29.0724
28.0153
26.8646
25.6245
24.3076
22.9355
21.5368
20.1433
18.7852
17.4868
16.2638
15.1232
14.0643
13.0805
12.1621
11.2979
10.477
9.68947
8.92693
8.18262
7.45126
6.72891
6.01266
5.30045
4.59084
3.88286
3.17586
2.46945
1.76341
1.05766
0.352282
34.6916
34.4892
34.1382
33.667
33.0985
32.4475
31.721
30.9198
30.0398
29.0747
28.0183
26.8679
25.6276
24.3097
22.9361
21.5355
20.1403
18.781
17.482
16.2592
15.1192
14.0611
13.0782
12.1606
11.2971
10.4766
9.6894
8.92705
8.18284
7.45152
6.72917
6.0129
5.30067
4.59103
3.88302
3.176
2.46956
1.76349
1.0577
0.35224
34.7353
34.4945
34.1247
33.6447
33.0719
32.4182
31.6894
30.8857
30.0036
29.0372
27.9812
26.8335
25.5985
24.2888
22.9252
21.5358
20.1513
18.8012
17.5089
16.2899
15.1512
14.0921
13.1066
12.1854
11.318
10.4938
9.70307
8.93769
8.19094
7.45758
6.73362
6.01612
5.30296
4.59264
3.88414
3.17678
2.47011
1.76387
1.05796
0.352313
34.8515
34.5647
34.1661
33.6686
33.0856
32.4263
31.695
30.8908
30.0095
29.0444
27.9895
26.8422
25.6062
24.2937
22.9263
21.5325
20.1443
18.7917
17.4986
16.2803
15.1432
14.0862
13.1028
12.1836
11.3176
10.4943
9.70422
8.93913
8.19245
7.45901
6.7349
6.01722
5.30386
4.59337
3.88472
3.17722
2.47044
1.76411
1.05808
0.352296
35.0176
34.6791
34.2461
33.7266
33.1304
32.4646
31.7315
30.929
30.0511
29.0897
28.0366
26.8874
25.6444
24.3197
22.936
21.5243
20.1197
18.755
17.455
16.235
15.1004
14.0486
13.0717
12.159
11.2991
10.4809
9.69487
8.93286
8.18842
7.45656
6.73351
6.01651
5.30358
4.59333
3.88481
3.17736
2.47058
1.76422
1.05814
0.352279
35.2093
34.8189
34.3503
33.8074
33.1974
32.5253
31.792
30.9935
30.1219
29.1663
28.1159
26.9631
25.7081
24.3628
22.9517
21.5103
20.0788
18.6937
17.3822
16.1593
15.0285
13.9848
13.0182
12.1162
11.2661
10.4564
9.67724
8.92054
8.18007
7.45107
6.73003
6.01439
5.30236
4.59269
3.88451
3.17726
2.47058
1.76425
1.05817
0.352289
35.4047
34.9668
34.4647
33.8995
33.2767
32.5999
31.8681
31.0758
30.2127
29.2651
28.2183
27.061
25.7906
24.4183
22.9715
21.4911
20.0244
18.6134
17.2875
16.0611
14.9356
13.9027
12.9495
12.0611
11.2236
10.4247
9.65419
8.90428
8.1689
7.4436
6.72517
6.01134
5.30052
4.59163
3.88395
3.177
2.47049
1.76424
1.05819
0.352329
35.5851
35.1069
34.5759
33.9914
33.358
32.678
31.9493
31.1647
30.3118
29.3735
28.3314
27.1698
25.8825
24.48
22.993
21.4687
19.9626
18.5229
17.1817
15.9526
14.8336
13.813
12.8746
12.0013
11.1775
10.3902
9.62919
8.88659
8.15669
7.43539
6.71979
6.00791
5.29841
4.59039
3.88326
3.17665
2.47034
1.7642
1.05821
0.352389
35.7349
35.2254
34.6716
34.0721
33.4307
32.749
32.0242
31.2476
30.4049
29.4763
28.4394
27.2743
25.9713
24.5399
23.0134
21.4461
19.9019
18.4351
17.08
15.8489
14.7369
13.7286
12.8045
11.9455
11.1346
10.3583
9.606
8.87019
8.14536
7.42775
6.71476
6.0047
5.29642
4.58921
3.88259
3.17631
2.47018
1.76416
1.05823
0.352456
35.8418
35.311
34.7416
34.1318
33.4852
32.8029
32.0816
31.3118
30.4775
29.5569
28.5247
27.3574
26.0425
24.588
23.0297
21.4276
19.8527
18.3645
16.999
15.7671
14.6611
13.6628
12.7502
11.9024
11.1016
10.3337
9.5882
8.85761
8.13668
7.42189
6.71091
6.00223
5.29489
4.58829
3.88207
3.17603
2.47006
1.76412
1.05825
0.352512
35.8975
35.3558
34.7785
34.1636
33.5144
32.8321
32.1128
31.3468
30.5173
29.6013
28.5719
27.4037
26.0823
24.615
23.0389
21.4171
19.825
18.3251
16.954
15.7219
14.6195
13.6268
12.7205
11.879
11.0837
10.3204
9.57858
8.85081
8.13199
7.41873
6.70883
6.0009
5.29406
4.5878
3.8818
3.17589
2.47
1.7641
1.05826
0.352544
35.8976
35.3558
34.7785
34.1636
33.5144
32.8321
32.1128
31.3468
30.5173
29.6013
28.5719
27.4037
26.0822
24.615
23.0389
21.4171
19.8251
18.3251
16.9541
15.722
14.6196
13.6269
12.7207
11.8791
11.0838
10.3205
9.57866
8.85088
8.13205
7.41878
6.70887
6.00093
5.29409
4.58781
3.88181
3.1759
2.47
1.76411
1.05826
0.352543
35.8419
35.311
34.7416
34.1319
33.4852
32.803
32.0817
31.3118
30.4775
29.5569
28.5247
27.3574
26.0424
24.588
23.0297
21.4277
19.8529
18.3648
16.9993
15.7675
14.6615
13.6632
12.7506
11.9027
11.1019
10.334
9.58844
8.85781
8.13684
7.42202
6.71102
6.00231
5.29495
4.58834
3.88211
3.17606
2.47008
1.76413
1.05825
0.352511
35.735
35.2255
34.6717
34.0722
33.4308
32.7491
32.0243
31.2477
30.405
29.4764
28.4394
27.2743
25.9713
24.5399
23.0135
21.4463
19.9021
18.4354
17.0805
15.8495
14.7375
13.7292
12.8051
11.9461
11.1351
10.3587
9.60638
8.87051
8.14563
7.42796
6.71494
6.00484
5.29653
4.58929
3.88265
3.17635
2.47021
1.76417
1.05823
0.352455
35.5852
35.1071
34.576
33.9916
33.3581
32.6781
31.9494
31.1649
30.3119
29.3737
28.3315
27.1698
25.8825
24.4801
22.993
21.4689
19.9629
18.5234
17.1824
15.9533
14.8343
13.8138
12.8754
12.002
11.1781
10.3908
9.62969
8.88702
8.15705
7.43567
6.72002
6.00809
5.29855
4.59049
3.88334
3.1767
2.47037
1.76422
1.05821
0.352388
35.4048
34.967
34.4649
33.8997
33.2769
32.6
31.8682
31.076
30.2129
29.2652
28.2184
27.0611
25.7906
24.4183
22.9716
21.4914
20.0249
18.614
17.2882
16.062
14.9365
13.9037
12.9504
12.062
11.2244
10.4253
9.65479
8.90479
8.16932
7.44394
6.72544
6.01155
5.30068
4.59175
3.88403
3.17706
2.47052
1.76426
1.05819
0.352327
35.2095
34.8191
34.3505
33.8075
33.1975
32.5255
31.7922
30.9937
30.122
29.1664
28.116
26.9632
25.7082
24.3629
22.952
21.5107
20.0793
18.6944
17.3831
16.1603
15.0295
13.9859
13.0193
12.1172
11.267
10.4572
9.67791
8.92111
8.18054
7.45145
6.73033
6.01463
5.30254
4.59282
3.8846
3.17733
2.47062
1.76427
1.05817
0.352287
35.0178
34.6793
34.2463
33.7268
33.1306
32.4647
31.7316
30.9291
30.0513
29.0898
28.0367
26.8875
25.6445
24.3199
22.9362
21.5247
20.1203
18.7557
17.4559
16.2361
15.1015
14.0497
13.0728
12.16
11.3
10.4817
9.69558
8.93346
8.18892
7.45696
6.73383
6.01676
5.30377
4.59347
3.8849
3.17742
2.47062
1.76424
1.05814
0.352276
34.8517
34.5649
34.1663
33.6688
33.0858
32.4265
31.6951
30.891
30.0096
29.0445
27.9896
26.8423
25.6063
24.2939
22.9266
21.533
20.1449
18.7925
17.4996
16.2814
15.1443
14.0873
13.1039
12.1846
11.3185
10.4952
9.70494
8.93973
8.19294
7.45941
6.73522
6.01746
5.30405
4.5935
3.88481
3.17728
2.47047
1.76412
1.05808
0.352292
34.7354
34.4947
34.1249
33.6449
33.0721
32.4184
31.6895
30.8859
30.0038
29.0374
27.9813
26.8336
25.5987
24.289
22.9256
21.5362
20.152
18.802
17.5099
16.291
15.1523
14.0932
13.1077
12.1865
11.319
10.4946
9.70377
8.93828
8.19142
7.45796
6.73392
6.01635
5.30313
4.59276
3.88422
3.17683
2.47013
1.76388
1.05795
0.352308
34.6918
34.4894
34.1384
33.6672
33.0987
32.4477
31.7212
30.92
30.04
29.0748
28.0184
26.8681
25.6277
24.3099
22.9364
21.536
20.141
18.7818
17.483
16.2602
15.1203
14.0622
13.0793
12.1616
11.298
10.4774
9.69008
8.92762
8.1833
7.45189
6.72945
6.01312
5.30082
4.59113
3.88309
3.17604
2.46958
1.76349
1.05769
0.35223
34.8118
34.5728
34.1976
33.7111
33.1336
32.4785
31.7515
30.9521
30.0754
29.1135
28.0588
26.9071
25.6612
24.3335
22.9466
21.5313
20.1224
18.7524
17.4469
16.2219
15.0833
14.0289
13.051
12.1387
11.2802
10.464
9.68033
8.92072
8.17854
7.4487
6.72738
6.01182
5.30004
4.5907
3.88287
3.17595
2.46955
1.76348
1.05765
0.352142
34.8515
34.5647
34.1661
33.6686
33.0856
32.4263
31.695
30.8908
30.0094
29.0443
27.9895
26.8422
25.6061
24.2937
22.9263
21.5325
20.1443
18.7917
17.4986
16.2803
15.1432
14.0862
13.1029
12.1836
11.3176
10.4944
9.70423
8.93913
8.19245
7.45901
6.7349
6.01722
5.30387
4.59337
3.88472
3.17722
2.47044
1.76411
1.05808
0.352296
34.9635
34.626
34.1946
33.6772
33.0823
32.4158
31.6801
30.8736
29.9913
29.0264
27.9728
26.8275
25.594
24.2844
22.9199
21.5293
20.1447
18.7961
17.5069
16.2919
15.1573
14.1015
13.1184
12.1984
11.3311
10.5061
9.71422
8.94735
8.19906
7.46422
6.73892
6.02028
5.30616
4.59507
3.88596
3.17812
2.47109
1.76456
1.05835
0.352327
35.13
34.7358
34.2664
33.7244
33.1144
32.4397
31.7007
30.8943
30.0143
29.0525
28.0011
26.8554
25.6175
24.2992
22.9229
21.5196
20.124
18.7681
17.4761
16.2623
15.1313
14.0806
13.1027
12.1875
11.3241
10.5021
9.71228
8.94681
8.19936
7.46498
6.73988
6.02126
5.30708
4.59587
3.88664
3.17867
2.47152
1.76487
1.05853
0.352358
35.3261
34.8746
34.3658
33.7978
33.1721
32.4897
31.7491
30.9455
30.0708
29.1146
28.0663
26.9183
25.6703
24.3334
22.9322
21.5021
20.0831
18.711
17.4113
16.1975
15.0722
14.0302
13.0619
12.156
11.3008
10.4855
9.70094
8.93936
8.19469
7.46222
6.7384
6.02058
5.30688
4.59595
3.88685
3.17893
2.47176
1.76507
1.05867
0.352421
35.5286
35.0237
34.4776
33.885
33.2448
32.5561
31.8158
31.0175
30.1509
29.2029
28.1591
27.0079
25.7456
24.3824
22.9456
21.4773
20.0251
18.6303
17.3202
16.1066
14.989
13.9588
13.0037
12.1106
11.2666
10.4606
9.68331
8.92728
8.18667
7.45709
6.73524
6.01875
5.30591
4.59551
3.88671
3.17896
2.47187
1.7652
1.05879
0.352519
35.7169
35.1662
34.5877
33.9737
33.3213
32.6282
31.89
31.0988
30.2423
29.3044
28.2667
27.1127
25.8343
24.4403
22.9613
21.4474
19.956
18.5353
17.2141
16.0019
14.8938
13.8775
12.9377
12.0589
11.2275
10.4319
9.6629
8.91313
8.17713
7.45084
6.73129
6.01635
5.30453
4.59478
3.88638
3.17886
2.4719
1.76529
1.0589
0.352638
35.8739
35.2872
34.6831
34.0523
33.3906
32.6949
31.9599
31.1764
30.3304
29.4033
28.3727
27.2173
25.924
24.4994
22.9772
21.4164
19.8855
18.4396
17.1088
15.8992
14.8016
13.7994
12.8744
12.0096
11.1903
10.4047
9.64342
8.89956
8.16793
7.44476
6.72739
6.01394
5.30311
4.59399
3.88599
3.17871
2.47188
1.76533
1.05898
0.352756
35.9863
35.3748
34.7532
34.1108
33.4431
32.7461
32.0142
31.2373
30.4003
29.4825
28.4586
27.3031
25.9987
24.5492
22.9906
21.3901
19.8262
18.3603
17.0229
15.8167
14.7282
13.7377
12.8248
11.9711
11.1613
10.3834
9.62825
8.88899
8.16073
7.43999
6.72432
6.01203
5.30196
4.59335
3.88566
3.17856
2.47184
1.76536
1.05905
0.352851
36.0449
35.4208
34.7902
34.142
33.4712
32.7739
32.0438
31.2707
30.4389
29.5265
28.5068
27.3518
26.0415
24.5781
22.9984
21.3748
19.7918
18.315
16.9744
15.7705
14.6875
13.7038
12.7976
11.9501
11.1455
10.3719
9.62
8.88324
8.15683
7.4374
6.72265
6.01099
5.30134
4.593
3.88548
3.17849
2.47183
1.76538
1.05908
0.352904
36.0449
35.4208
34.7902
34.142
33.4713
32.7739
32.0438
31.2707
30.4389
29.5266
28.5068
27.3517
26.0415
24.5781
22.9984
21.3748
19.7919
18.3151
16.9745
15.7707
14.6877
13.7039
12.7978
11.9502
11.1456
10.372
9.62008
8.88331
8.15688
7.43745
6.72269
6.01102
5.30136
4.59301
3.88549
3.17849
2.47183
1.76538
1.05908
0.352903
35.9864
35.3749
34.7532
34.1109
33.4431
32.7462
32.0142
31.2373
30.4003
29.4825
28.4586
27.303
25.9986
24.5491
22.9906
21.3902
19.8264
18.3606
17.0233
15.8171
14.7286
13.7381
12.8252
11.9715
11.1616
10.3837
9.62848
8.88918
8.16089
7.44012
6.72443
6.01211
5.30203
4.5934
3.8857
3.17859
2.47186
1.76537
1.05905
0.352849
35.874
35.2873
34.6832
34.0524
33.3907
32.695
31.96
31.1765
30.3305
29.4034
28.3728
27.2173
25.924
24.4994
22.9772
21.4166
19.8858
18.44
17.1093
15.8998
14.8022
13.8
12.875
12.0102
11.1908
10.4051
9.64379
8.89987
8.16818
7.44497
6.72756
6.01407
5.30321
4.59407
3.88605
3.17875
2.4719
1.76535
1.05899
0.352752
35.717
35.1663
34.5879
33.9738
33.3214
32.6283
31.8901
31.0989
30.2424
29.3045
28.2668
27.1127
25.8343
24.4403
22.9614
21.4476
19.9564
18.5358
17.2148
16.0026
14.8946
13.8783
12.9384
12.0596
11.2281
10.4325
9.66339
8.91354
8.17747
7.45112
6.73151
6.01653
5.30466
4.59488
3.88646
3.17891
2.47193
1.76531
1.0589
0.352632
35.5288
35.0239
34.4778
33.8852
33.2449
32.5562
31.816
31.0176
30.1511
29.203
28.1593
27.008
25.7456
24.3824
22.9458
21.4776
20.0255
18.6309
17.321
16.1075
14.9899
13.9597
13.0046
12.1114
11.2673
10.4612
9.68388
8.92777
8.18708
7.45742
6.73551
6.01896
5.30607
4.59563
3.8868
3.17902
2.47191
1.76523
1.0588
0.352512
35.3263
34.8748
34.3659
33.798
33.1723
32.4899
31.7493
30.9456
30.071
29.1148
28.0665
26.9184
25.6704
24.3335
22.9324
21.5025
20.0836
18.7117
17.4122
16.1985
15.0732
14.0312
13.0629
12.157
11.3017
10.4863
9.70159
8.93991
8.19515
7.46259
6.73869
6.02081
5.30706
4.59608
3.88694
3.17899
2.4718
1.7651
1.05867
0.352413
35.1301
34.736
34.2666
33.7246
33.1146
32.4399
31.7009
30.8945
30.0145
29.0527
28.0012
26.8555
25.6176
24.2994
22.9232
21.52
20.1246
18.7689
17.477
16.2633
15.1324
14.0817
13.1038
12.1885
11.325
10.5029
9.71296
8.94739
8.19984
7.46537
6.74019
6.0215
5.30726
4.59601
3.88673
3.17873
2.47156
1.76489
1.05853
0.352349
34.9637
34.6262
34.1948
33.6774
33.0825
32.416
31.6803
30.8738
29.9915
29.0266
27.973
26.8277
25.5942
24.2846
22.9202
21.5298
20.1454
18.7969
17.5079
16.293
15.1584
14.1027
13.1195
12.1994
11.332
10.507
9.71492
8.94794
8.19954
7.46461
6.73923
6.02051
5.30633
4.59519
3.88605
3.17818
2.47112
1.76457
1.05835
0.352317
34.8517
34.5649
34.1663
33.6688
33.0858
32.4265
31.6951
30.891
30.0096
29.0445
27.9896
26.8423
25.6063
24.2939
22.9266
21.533
20.145
18.7926
17.4997
16.2814
15.1444
14.0874
13.104
12.1846
11.3185
10.4952
9.70492
8.93971
8.19292
7.45939
6.73519
6.01744
5.30403
4.59348
3.88479
3.17726
2.47046
1.76411
1.05807
0.352285
34.812
34.5729
34.1978
33.7112
33.1338
32.4787
31.7517
30.9523
30.0756
29.1136
28.0589
26.9072
25.6613
24.3337
22.9469
21.5318
20.123
18.7533
17.448
16.223
15.0844
14.0301
13.0521
12.1397
11.2811
10.4648
9.68099
8.92126
8.17898
7.44904
6.72764
6.01201
5.30018
4.59079
3.88292
3.17597
2.46956
1.76347
1.05763
0.352125
34.9749
34.6936
34.2885
33.7823
33.1936
32.5339
31.8075
31.0127
30.1423
29.1864
28.1347
26.9801
25.7235
24.377
22.965
21.522
20.0874
18.6976
17.3802
16.1513
15.0153
13.968
12.9995
12.0971
11.2478
10.4397
9.6626
8.90814
8.16985
7.44285
6.72355
6.00938
5.29855
4.58982
3.88238
3.17569
2.46942
1.7634
1.05757
0.352057
35.0176
34.6791
34.2461
33.7266
33.1304
32.4645
31.7314
30.9289
30.051
29.0896
28.0365
26.8873
25.6443
24.3196
22.9359
21.5242
20.1197
18.755
17.455
16.2351
15.1005
14.0487
13.0718
12.1591
11.2991
10.481
9.69489
8.93288
8.18843
7.45657
6.73352
6.01651
5.30358
4.59333
3.88481
3.17736
2.47058
1.76422
1.05814
0.352279
35.13
34.7358
34.2664
33.7244
33.1144
32.4397
31.7007
30.8943
30.0143
29.0524
28.001
26.8553
25.6174
24.2992
22.9229
21.5195
20.124
18.7681
17.4761
16.2623
15.1313
14.0807
13.1027
12.1875
11.3241
10.5021
9.71229
8.94682
8.19937
7.46498
6.73988
6.02126
5.30708
4.59587
3.88664
3.17867
2.47152
1.76487
1.05853
0.352358