# vtk DataFile Version 2.0
I need something to put here
ASCII

DATASET STRUCTURED_GRID
DIMENSIONS 41 21 21
POINTS 18081 float
0.000000 0.000000 0.000000
0.100000 0.000000 0.000000
0.200000 0.000000 0.000000
0.300000 0.000000 0.000000
0.400000 0.000000 0.000000
0.500000 0.000000 0.000000
0.600000 0.000000 0.000000
0.700000 0.000000 0.000000
0.800000 0.000000 0.000000
0.900000 0.000000 0.000000
1.000000 0.000000 0.000000
1.100000 0.000000 0.000000
1.200000 0.000000 0.000000
1.300000 0.000000 0.000000
1.400000 0.000000 0.000000
1.500000 0.000000 0.000000
1.600000 0.000000 0.000000
1.700000 0.000000 0.000000
1.800000 0.000000 0.000000
1.900000 0.000000 0.000000
2.000000 0.000000 0.000000
2.100000 0.000000 0.000000
2.200000 0.000000 0.000000
2.300000 0.000000 0.000000
2.400000 0.000000 0.000000
2.500000 0.000000 0.000000
2.600000 0.000000 0.000000
2.700000 0.000000 0.000000
2.800000 0.000000 0.000000
2.900000 0.000000 0.000000
3.000000 0.000000 0.000000
3.100000 0.000000 0.000000
3.200000 0.000000 0.000000
3.300000 0.000000 0.000000
3.400000 0.000000 0.000000
3.500000 0.000000 0.000000
3.600000 0.000000 0.000000
3.700000 0.000000 0.000000
3.800000 0.000000 0.000000
3.900000 0.000000 0.000000
4.000000 0.000000 0.000000
0.000000 0.100000 0.000000
0.100000 0.100000 0.000000
0.200000 0.100000 0.000000
0.300000 0.100000 0.000000
0.400000 0.100000 0.000000
0.500000 0.100000 0.000000
0.600000 0.100000 0.000000
0.700000 0.100000 0.000000
0.800000 0.100000 0.000000
0.900000 0.100000 0.000000
1.000000 0.100000 0.000000
1.100000 0.100000 0.000000
1.200000 0.100000 0.000000
1.300000 0.100000 0.000000
1.400000 0.100000 0.000000
1.500000 0.100000 0.000000
1.600000 0.100000 0.000000
1.700000 0.100000 0.000000
1.800000 0.100000 0.000000
1.900000 0.100000 0.000000
2.000000 0.100000 0.000000
2.100000 0.100000 0.000000
2.200000 0.100000 0.000000
2.300000 0.100000 0.000000
2.400000 0.100000 0.000000
2.500000 0.100000 0.000000
2.600000 0.100000 0.000000
2.700000 0.100000 0.000000
2.800000 0.100000 0.000000
2.900000 0.100000 0.000000
3.000000 0.100000 0.000000
3.100000 0.100000 0.000000
3.200000 0.100000 0.000000
3.300000 0.100000 0.000000
3.400000 0.100000 0.000000
3.500000 0.100000 0.000000
3.600000 0.100000 0.000000
3.700000 0.100000 0.000000
3.800000 0.100000 0.000000
3.900000 0.100000 0.000000
4.000000 0.100000 0.000000
0.000000 0.200000 0.000000
0.100000 0.200000 0.000000
0.200000 0.200000 0.000000
0.300000 0.200000 0.000000
0.400000 0.200000 0.000000
0.500000 0.200000 0.000000
0.600000 0.200000 0.000000
0.700000 0.200000 0.000000
0.800000 0.200000 0.000000
0.900000 0.200000 0.000000
1.000000 0.200000 0.000000
1.100000 0.200000 0.000000
1.200000 0.200000 0.000000
1.300000 0.200000 0.000000
1.400000 0.200000 0.000000
1.500000 0.200000 0.000000
1.600000 0.200000 0.000000
1.700000 0.200000 0.000000
1.800000 0.200000 0.000000
1.900000 0.200000 0.000000
2.000000 0.200000 0.000000
2.100000 0.200000 0.000000
2.200000 0.200000 0.000000
2.300000 0.200000 0.000000
2.400000 0.200000 0.000000
2.500000 0.200000 0.000000
2.600000 0.200000 0.000000
2.700000 0.200000 0.000000
2.800000 0.200000 0.000000
2.900000 0.200000 0.000000
3.000000 0.200000 0.000000
3.100000 0.200000 0.000000
3.200000 0.200000 0.000000
3.300000 0.200000 0.000000
3.400000 0.200000 0.000000
3.500000 0.200000 0.000000
3.600000 0.200000 0.000000
3.700000 0.200000 0.000000
3.800000 0.200000 0.000000
3.900000 0.200000 0.000000
4.000000 0.200000 0.000000
0.000000 0.300000 0.000000
0.100000 0.300000 0.000000
0.200000 0.300000 0.000000
0.300000 0.300000 0.000000
0.400000 0.300000 0.000000
0.500000 0.300000 0.000000
0.600000 0.300000 0.000000
0.700000 0.300000 0.000000
0.800000 0.300000 0.000000
0.900000 0.300000 0.000000
1.000000 0.300000 0.000000
1.100000 0.300000 0.000000
1.200000 0.300000 0.000000
1.300000 0.300000 0.000000
1.400000 0.300000 0.000000
1.500000 0.300000 0.000000
1.600000 0.300000 0.000000
1.700000 0.300000 0.000000
1.800000 0.300000 0.000000
1.900000 0.300000 0.000000
2.000000 0.300000 0.000000
2.100000 0.300000 0.000000
2.200000 0.300000 0.000000
2.300000 0.300000 0.000000
2.400000 0.300000 0.000000
2.500000 0.300000 0.000000
2.600000 0.300000 0.000000
2.700000 0.300000 0.000000
2.800000 0.300000 0.000000
2.900000 0.300000 0.000000
3.000000 0.300000 0.000000
3.100000 0.300000 0.000000
3.200000 0.300000 0.000000
3.300000 0.300000 0.000000
3.400000 0.300000 0.000000
3.500000 0.300000 0.000000
3.600000 0.300000 0.000000
3.700000 0.300000 0.000000
3.800000 0.300000 0.000000
3.900000 0.300000 0.000000
4.000000 0.300000 0.000000
0.000000 0.400000 0.000000
0.100000 0.400000 0.000000
0.200000 0.400000 0.000000
0.300000 0.400000 0.000000
0.400000 0.400000 0.000000
0.500000 0.400000 0.000000
0.600000 0.400000 0.000000
0.700000 0.400000 0.000000
0.800000 0.400000 0.000000
0.900000 0.400000 0.000000
1.000000 0.400000 0.000000
1.100000 0.400000 0.000000
1.200000 0.400000 0.000000
1.300000 0.400000 0.000000
1.400000 0.400000 0.000000
1.500000 0.400000 0.000000
1.600000 0.400000 0.000000
1.700000 0.400000 0.000000
1.800000 0.400000 0.000000
1.900000 0.400000 0.000000
2.000000 0.400000 0.000000
2.100000 0.400000 0.000000
2.200000 0.400000 0.000000
2.300000 0.400000 0.000000
2.400000 0.400000 0.000000
2.500000 0.400000 0.000000
2.600000 0.400000 0.000000
2.700000 0.400000 0.000000
2.800000 0.400000 0.000000
2.900000 0.400000 0.000000
3.000000 0.400000 0.000000
3.100000 0.400000 0.000000
3.200000 0.400000 0.000000
3.300000 0.400000 0.000000
3.400000 0.400000 0.000000
3.500000 0.400000 0.000000
3.600000 0.400000 0.000000
3.700000 0.400000 0.000000
3.800000 0.400000 0.000000
3.900000 0.400000 0.000000
4.000000 0.400000 0.000000
0.000000 0.500000 0.000000
0.100000 0.500000 0.000000
0.200000 0.500000 0.000000
0.300000 0.500000 0.000000
0.400000 0.500000 0.000000
0.500000 0.500000 0.000000
0.600000 0.500000 0.000000
0.700000 0.500000 0.000000
0.800000 0.500000 0.000000
0.900000 0.500000 0.000000
1.000000 0.500000 0.000000
1.100000 0.500000 0.000000
1.200000 0.500000 0.000000
1.300000 0.500000 0.000000
1.400000 0.500000 0.000000
1.500000 0.500000 0.000000
1.600000 0.500000 0.000000
1.700000 0.500000 0.000000
1.800000 0.500000 0.000000
1.900000 0.500000 0.000000
2.000000 0.500000 0.000000
2.100000 0.500000 0.000000
2.200000 0.500000 0.000000
2.300000 0.500000 0.000000
2.400000 0.500000 0.000000
2.500000 0.500000 0.000000
2.600000 0.500000 0.000000
2.700000 0.500000 0.000000
2.800000 0.500000 0.000000
2.900000 0.500000 0.000000
3.000000 0.500000 0.000000
3.100000 0.500000 0.000000
3.200000 0.500000 0.000000
3.300000 0.500000 0.000000
3.400000 0.500000 0.000000
3.500000 0.500000 0.000000
3.600000 0.500000 0.000000
3.700000 0.500000 0.000000
3.800000 0.500000 0.000000
3.900000 0.500000 0.000000
4.000000 0.500000 0.000000
0.000000 0.600000 0.000000
0.100000 0.600000 0.000000
0.200000 0.600000 0.000000
0.300000 0.600000 0.000000
0.400000 0.600000 0.000000
0.500000 0.600000 0.000000
0.600000 0.600000 0.000000
0.700000 0.600000 0.000000
0.800000 0.600000 0.000000
0.900000 0.600000 0.000000
1.000000 0.600000 0.000000
1.100000 0.600000 0.000000
1.200000 0.600000 0.000000
1.300000 0.600000 0.000000
1.400000 0.600000 0.000000
1.500000 0.600000 0.000000
1.600000 0.600000 0.000000
1.700000 0.600000 0.000000
1.800000 0.600000 0.000000
1.900000 0.600000 0.000000
2.000000 0.600000 0.000000
2.100000 0.600000 0.000000
2.200000 0.600000 0.000000
2.300000 0.600000 0.000000
2.400000 0.600000 0.000000
2.500000 0.600000 0.000000
2.600000 0.600000 0.000000
2.700000 0.600000 0.000000
2.800000 0.600000 0.000000
2.900000 0.600000 0.000000
3.000000 0.600000 0.000000
3.100000 0.600000 0.000000
3.200000 0.600000 0.000000
3.300000 0.600000 0.000000
3.400000 0.600000 0.000000
3.500000 0.600000 0.000000
3.600000 0.600000 0.000000
3.700000 0.600000 0.000000
3.800000 0.600000 0.000000
3.900000 0.600000 0.000000
4.000000 0.600000 0.000000
0.000000 0.700000 0.000000
0.100000 0.700000 0.000000
0.200000 0.700000 0.000000
0.300000 0.700000 0.000000
0.400000 0.700000 0.000000
0.500000 0.700000 0.000000
0.600000 0.700000 0.000000
0.700000 0.700000 0.000000
0.800000 0.700000 0.000000
0.900000 0.700000 0.000000
1.000000 0.700000 0.000000
1.100000 0.700000 0.000000
1.200000 0.700000 0.000000
1.300000 0.700000 0.000000
1.400000 0.700000 0.000000
1.500000 0.700000 0.000000
1.600000 0.700000 0.000000
1.700000 0.700000 0.000000
1.800000 0.700000 0.000000
1.900000 0.700000 0.000000
2.000000 0.700000 0.000000
2.100000 0.700000 0.000000
2.200000 0.700000 0.000000
2.300000 0.700000 0.000000
2.400000 0.700000 0.000000
2.500000 0.700000 0.000000
2.600000 0.700000 0.000000
2.700000 0.700000 0.000000
2.800000 0.700000 0.000000
2.900000 0.700000 0.000000
3.000000 0.700000 0.000000
3.100000 0.700000 0.000000
3.200000 0.700000 0.000000
3.300000 0.700000 0.000000
3.400000 0.700000 0.000000
3.500000 0.700000 0.000000
3.600000 0.700000 0.000000
3.700000 0.700000 0.000000
3.800000 0.700000 0.000000
3.900000 0.700000 0.000000
4.000000 0.700000 0.000000
0.000000 0.800000 0.000000
0.100000 0.800000 0.000000
0.200000 0.800000 0.000000
0.300000 0.800000 0.000000
0.400000 0.800000 0.000000
0.500000 0.800000 0.000000
0.600000 0.800000 0.000000
0.700000 0.800000 0.000000
0.800000 0.800000 0.000000
0.900000 0.800000 0.000000
1.000000 0.800000 0.000000
1.100000 0.800000 0.000000
1.200000 0.800000 0.000000
1.300000 0.800000 0.000000
1.400000 0.800000 0.000000
1.500000 0.800000 0.000000
1.600000 0.800000 0.000000
1.700000 0.800000 0.000000
1.800000 0.800000 0.000000
1.900000 0.800000 0.000000
2.000000 0.800000 0.000000
2.100000 0.800000 0.000000
2.200000 0.800000 0.000000
2.300000 0.800000 0.000000
2.400000 0.800000 0.000000
2.500000 0.800000 0.000000
2.600000 0.800000 0.000000
2.700000 0.800000 0.000000
2.800000 0.800000 0.000000
2.900000 0.800000 0.000000
3.000000 0.800000 0.000000
3.100000 0.800000 0.000000
3.200000 0.800000 0.000000
3.300000 0.800000 0.000000
3.400000 0.800000 0.000000
3.500000 0.800000 0.000000
3.600000 0.800000 0.000000
[...]
CELL_DATA 16000
SCALARS pressure float 1
LOOKUP_TABLE default
34.6681
34.4913
34.1542
33.6905
33.1259
32.4766
31.7504
30.9482
30.0665
29.0992
28.0403
26.8877
25.6455
24.3265
22.9523
21.5516
20.1561
18.796
17.4956
16.2708
15.1287
14.0683
13.0834
12.1641
11.2992
10.4778
9.68986
8.92709
8.18263
7.4512
6.72881
6.01255
5.30035
4.59075
3.88279
3.17582
2.46942
1.76339
1.05766
0.352282
34.7237
34.5214
34.1704
33.6991
33.1303
32.4789
31.7517
30.9495
30.0683
29.1016
28.0435
26.8912
25.6488
24.3288
22.9532
21.5507
20.1537
18.7926
17.4919
16.2673
15.1258
14.0663
13.0822
12.1636
11.2992
10.4782
9.69049
8.9278
8.18333
7.45184
6.72937
6.01302
5.30073
4.59106
3.88303
3.176
2.46956
1.76348
1.05769
0.352234
34.844
34.605
34.2299
33.7432
33.1655
32.51
31.7823
30.982
30.104
29.1406
28.0841
26.9304
25.6824
24.3526
22.9637
21.5465
20.1357
18.764
17.4567
16.23
15.0897
14.034
13.0549
12.1416
11.2823
10.4655
9.68136
8.92141
8.179
7.44899
6.72756
6.01192
5.3001
4.59072
3.88287
3.17594
2.46954
1.76347
1.05764
0.352135
35.0071
34.7259
34.3208
33.8146
33.2256
32.5655
31.8386
31.0428
30.1712
29.2138
28.1602
27.0036
25.7448
24.3961
22.9821
21.5372
20.1007
18.7091
17.39
16.1592
15.0216
13.9729
13.0031
12.0997
11.2497
10.4411
9.66352
8.90876
8.17025
7.4431
6.7237
6.00947
5.29859
4.58984
3.88238
3.17569
2.46941
1.76339
1.05755
0.352049
35.1919
34.8686
34.4321
33.9049
33.3044
32.6406
31.9164
31.1281
30.2663
29.3179
28.2687
27.1078
25.8335
24.4574
23.0067
21.5216
20.0482
18.6285
17.2928
16.0572
14.924
13.8859
12.9298
12.0406
11.2038
10.4066
9.6384
8.89091
8.15788
7.43473
6.71817
6.00592
5.29638
4.58851
3.88162
3.17527
2.4692
1.76327
1.05748
0.351996
35.3792
35.0178
34.5516
34.0046
33.3936
32.7276
32.0084
31.2303
30.3814
29.4448
28.4016
27.2362
25.9427
24.5323
23.0357
21.5003
19.9809
18.5267
17.1715
15.9309
14.8043
13.7799
12.8409
11.9694
11.1489
10.3655
9.60848
8.86968
8.14318
7.42478
6.7116
6.00168
5.29372
4.58691
3.88069
3.17476
2.46893
1.76314
1.05741
0.351977
35.5519
35.1583
34.6667
34.1027
33.4833
32.817
32.1044
31.3383
30.5041
29.5812
28.5455
27.3758
26.062
24.6141
23.0665
21.4751
19.905
18.4136
17.0382
15.7935
14.675
13.6664
12.7465
11.8942
11.0911
10.3224
9.57726
8.84759
8.1279
7.41445
6.70477
5.99728
5.29097
4.58523
3.87972
3.17422
2.46866
1.76301
1.05737
0.351987
35.6954
35.277
34.7655
34.1882
33.5628
32.8975
32.192
31.4379
30.6185
29.7094
28.6818
27.5089
26.1763
24.6924
23.0955
21.4498
19.831
18.3043
16.9105
15.663
14.5534
13.5604
12.6589
11.8248
11.038
10.2831
9.54882
8.82752
8.11405
7.4051
6.6986
5.9933
5.28848
4.58372
3.87884
3.17374
2.46841
1.76291
1.05735
0.352013
35.7979
35.3627
34.8376
34.2515
33.6224
32.9585
32.2591
31.5148
30.7073
29.8096
28.7891
27.6145
26.2673
24.7549
23.1185
21.429
19.7712
18.2168
16.8091
15.5602
14.4581
13.478
12.5912
11.7714
10.9974
10.253
9.52716
8.81227
8.10355
7.39803
6.69394
5.9903
5.2866
4.58258
3.87818
3.17338
2.46823
1.76284
1.05734
0.35204
35.8513
35.4076
34.8757
34.2852
33.6543
32.9913
32.2954
31.5567
30.756
29.8648
28.8484
27.6731
26.3181
24.7898
23.1312
21.4172
19.7376
18.1679
16.7528
15.5034
14.4058
13.4329
12.5543
11.7424
10.9754
10.2368
9.51548
8.80407
8.09792
7.39424
6.69145
5.9887
5.2856
4.58198
3.87783
3.17319
2.46814
1.7628
1.05734
0.352057
35.8513
35.4077
34.8757
34.2852
33.6544
32.9914
32.2955
31.5568
30.7561
29.8648
28.8484
27.6731
26.3181
24.7898
23.1312
21.4172
19.7377
18.168
16.7529
15.5035
14.4059
13.433
12.5544
11.7426
10.9755
10.2369
9.51557
8.80414
8.09798
7.39429
6.69149
5.98873
5.28562
4.582
3.87784
3.1732
2.46815
1.7628
1.05734
0.352058
35.798
35.3628
34.8377
34.2516
33.6225
32.9586
32.2591
31.5149
30.7074
29.8097
28.7891
27.6145
26.2673
24.7549
23.1184
21.4291
19.7713
18.217
16.8094
15.5606
14.4586
13.4784
12.5916
11.7718
10.9977
10.2533
9.52741
8.81248
8.10373
7.39817
6.69405
5.99039
5.28667
4.58263
3.87821
3.1734
2.46825
1.76285
1.05734
0.352042
35.6955
35.2771
34.7656
34.1884
33.563
32.8976
32.1922
31.4381
30.6186
29.7095
28.6818
27.509
26.1763
24.6923
23.0955
21.4499
19.8312
18.3047
16.911
15.6636
14.554
13.5611
12.6596
11.8254
11.0386
10.2835
9.54922
8.82786
8.11433
7.40533
6.69878
5.99344
5.28858
4.5838
3.8789
3.17378
2.46844
1.76292
1.05736
0.352016
35.5521
35.1585
34.6669
34.1028
33.4834
32.8171
32.1045
31.3384
30.5043
29.5814
28.5457
27.3759
26.0621
24.6141
23.0666
21.4753
19.9054
18.4141
17.0389
15.7943
14.6759
13.6673
12.7474
11.895
11.0918
10.3231
9.57779
8.84803
8.12827
7.41475
6.70501
5.99746
5.29111
4.58534
3.87979
3.17428
2.46869
1.76303
1.05738
0.351992
35.3794
35.0179
34.5518
34.0048
33.3938
32.7279
32.0086
31.2305
30.3816
29.445
28.4018
27.2362
25.9428
24.5324
23.0359
21.5005
19.9813
18.5273
17.1724
15.9319
14.8053
13.7809
12.8419
11.9703
11.1497
10.3662
9.60911
8.87021
8.14361
7.42513
6.71187
6.00189
5.29389
4.58703
3.88078
3.17482
2.46897
1.76316
1.05742
0.351982
35.1921
34.8688
34.4323
33.9051
33.3046
32.6408
31.9166
31.1283
30.2665
29.3181
28.2688
27.108
25.8336
24.4575
23.0069
21.522
20.0488
18.6293
17.2938
16.0583
14.9252
13.887
12.9308
12.0416
11.2048
10.4074
9.63909
8.89149
8.15836
7.43512
6.71848
6.00615
5.29656
4.58864
3.88172
3.17533
2.46924
1.76329
1.05749
0.352
35.0073
34.7261
34.3211
33.8148
33.2259
32.5658
31.8388
31.043
30.1715
29.214
28.1604
27.0037
25.7449
24.3963
22.9823
21.5376
20.1014
18.71
17.391
16.1604
15.0228
13.9741
13.0043
12.1008
11.2507
10.4419
9.66425
8.90937
8.17075
7.44351
6.72402
6.00971
5.29878
4.58997
3.88248
3.17575
2.46945
1.7634
1.05756
0.352052
34.8442
34.6052
34.2301
33.7434
33.1658
32.5102
31.7825
30.9822
30.1042
29.1408
28.0842
26.9306
25.6826
24.3528
22.964
21.547
20.1364
18.7648
17.4578
16.2311
15.091
14.0352
13.0561
12.1427
11.2832
10.4664
9.68209
8.92203
8.1795
7.4494
6.72788
6.01216
5.30028
4.59085
3.88296
3.176
2.46958
1.76348
1.05764
0.352135
34.724
34.5216
34.1707
33.6993
33.1306
32.4791
31.752
30.9498
30.0685
29.1019
28.0437
26.8914
25.6489
24.3291
22.9536
21.5512
20.1544
18.7935
17.4929
16.2684
15.127
14.0675
13.0833
12.1646
11.3002
10.479
9.6912
8.92839
8.18382
7.45223
6.72967
6.01325
5.3009
4.59118
3.88311
3.17604
2.46958
1.76349
1.05769
0.352232
34.6683
34.4915
34.1545
33.6908
33.1262
32.4769
31.7506
30.9485
30.0668
29.0994
28.0405
26.8879
25.6458
24.3268
22.9527
21.5521
20.1568
18.7968
17.4966
16.2719
15.1298
14.0695
13.0845
12.1651
11.3001
10.4786
9.69055
8.92766
8.1831
7.45157
6.72909
6.01277
5.30051
4.59087
3.88286
3.17586
2.46944
1.7634
1.05765
0.352276
34.7237
34.5214
34.1704
33.6991
33.1303
32.4789
31.7517
30.9495
30.0683
29.1016
28.0434
26.8912
25.6487
24.3288
22.9532
21.5507
20.1537
18.7926
17.4919
16.2673
15.1258
14.0663
13.0822
12.1636
11.2993
10.4782
9.6905
8.9278
8.18334
7.45184
6.72937
6.01302
5.30073
4.59106
3.88303
3.176
2.46956
1.76348
1.05769
0.352234
34.7674
34.5267
34.1568
33.6768
33.1037
32.4495
31.7199
30.9153
30.032
29.0641
28.0063
26.8567
25.6197
24.3079
22.9424
21.551
20.1647
18.8128
17.5188
16.2982
15.1579
14.0973
13.1107
12.1885
11.3203
10.4954
9.70422
8.93848
8.19147
7.45793
6.73384
6.01626
5.30304
4.59268
3.88416
3.17678
2.4701
1.76387
1.05795
0.352308
34.8836
34.5969
34.1982
33.7007
33.1174
32.4576
31.7256
30.9205
30.0379
29.0713
28.0146
26.8654
25.6273
24.3128
22.9435
21.5477
20.1577
18.8033
17.5085
16.2885
15.1498
14.0914
13.1069
12.1866
11.3199
10.496
9.70537
8.93992
8.19298
7.45936
6.73513
6.01736
5.30395
4.59341
3.88474
3.17722
2.47044
1.7641
1.05807
0.35229
35.0498
34.7113
34.2783
33.7587
33.1623
32.496
31.7622
30.9588
30.0797
29.1167
28.0618
26.9106
25.6655
24.3388
22.953
21.5395
20.1331
18.7666
17.4648
16.2432
15.107
14.0538
13.0756
12.162
11.3013
10.4825
9.69596
8.93361
8.18893
7.45689
6.73372
6.01664
5.30366
4.59337
3.88482
3.17737
2.47058
1.76421
1.05813
0.352273
35.2416
34.8513
34.3827
33.8396
33.2294
32.557
31.823
31.0236
30.1507
29.1935
28.1412
26.9863
25.7292
24.3817
22.9687
21.5254
20.0921
18.7053
17.392
16.1673
15.0349
13.9898
13.022
12.119
11.2682
10.4579
9.67824
8.92122
8.18052
7.45136
6.73021
6.0145
5.30243
4.59272
3.88452
3.17727
2.47058
1.76425
1.05816
0.352283
35.4371
34.9993
34.4972
33.932
33.309
32.6317
31.8994
31.1062
30.2419
29.2926
28.2439
27.0843
25.8116
24.4371
22.9883
21.5062
20.0377
18.6249
17.2972
16.069
14.9418
13.9075
12.953
12.0637
11.2254
10.4259
9.65506
8.90486
8.16928
7.44384
6.72532
6.01142
5.30056
4.59165
3.88395
3.177
2.47048
1.76423
1.05818
0.352323
35.6176
35.1396
34.6086
34.0241
33.3905
32.7101
31.9809
31.1955
30.3413
29.4014
28.3572
27.1932
25.9035
24.4987
23.0097
21.4836
19.9759
18.5344
17.1914
15.9603
14.8396
13.8175
12.8779
12.0036
11.1791
10.3913
9.62993
8.88707
8.157
7.43558
6.7199
6.00797
5.29844
4.5904
3.88326
3.17665
2.47033
1.76419
1.0582
0.352384
35.7676
35.2582
34.7044
34.1049
33.4634
32.7814
32.056
31.2787
30.4347
29.5044
28.4653
27.2977
25.9922
24.5584
23.03
21.461
19.9152
18.4466
17.0895
15.8565
14.7427
13.7329
12.8076
11.9476
11.136
10.3592
9.60661
8.87057
8.1456
7.42789
6.71484
6.00474
5.29644
4.58921
3.88259
3.1763
2.47017
1.76415
1.05822
0.35245
35.8747
35.3439
34.7746
34.1648
33.5181
32.8355
32.1137
31.3431
30.5075
29.5852
28.5508
27.3809
26.0633
24.6064
23.0462
21.4425
19.866
18.376
17.0085
15.7746
14.6668
13.6669
12.753
11.9043
11.1029
10.3345
9.58872
8.85792
8.13686
7.42199
6.71096
6.00225
5.29489
4.58828
3.88206
3.17602
2.47005
1.76411
1.05824
0.352506
35.9305
35.3888
34.8116
34.1966
33.5474
32.8648
32.145
31.3782
30.5475
29.6298
28.5981
27.4272
26.103
24.6334
23.0553
21.432
19.8383
18.3366
16.9635
15.7294
14.6251
13.6307
12.7233
11.8808
11.0849
10.3211
9.57904
8.85108
8.13214
7.41881
6.70887
6.00091
5.29406
4.58778
3.88178
3.17587
2.46998
1.76409
1.05825
0.352538
35.9305
35.3888
34.8116
34.1967
33.5474
32.8648
32.1451
31.3782
30.5475
29.6298
28.5981
27.4272
26.103
24.6334
23.0553
21.432
19.8384
18.3367
16.9636
15.7295
14.6252
13.6309
12.7234
11.8809
11.085
10.3212
9.57912
8.85115
8.1322
7.41885
6.7089
6.00094
5.29408
4.5878
3.88179
3.17588
2.46999
1.76409
1.05825
0.352538
35.8748
35.344
34.7746
34.1649
33.5181
32.8356
32.1138
31.3431
30.5076
29.5853
28.5508
27.3809
26.0633
24.6064
23.0463
21.4426
19.8662
18.3763
17.0088
15.775
14.6672
13.6672
12.7534
11.9047
11.1032
10.3348
9.58895
8.85811
8.13702
7.42212
6.71106
6.00233
5.29495
4.58833
3.8821
3.17604
2.47006
1.76412
1.05824
0.352506
35.7677
35.2583
34.7045
34.105
33.4635
32.7815
32.0562
31.2788
30.4348
29.5045
28.4654
27.2977
25.9922
24.5584
23.0301
21.4612
19.9154
18.447
17.09
15.8571
14.7433
13.7335
12.8082
11.9481
11.1365
10.3596
9.60698
8.87088
8.14586
7.4281
6.71501
6.00487
5.29654
4.58928
3.88264
3.17633
2.4702
1.76416
1.05822
0.352449
35.6178
35.1397
34.6087
34.0242
33.3907
32.7103
31.981
31.1956
30.3414
29.4015
28.3573
27.1933
25.9035
24.4988
23.0098
21.4839
19.9762
18.535
17.192
15.961
14.8403
13.8183
12.8786
12.0043
11.1797
10.3919
9.63041
8.88748
8.15734
7.43585
6.72012
6.00815
5.29858
4.5905
3.88333
3.17669
2.47036
1.76421
1.0582
0.352382
35.4373
34.9995
34.4974
33.9322
33.3092
32.6319
31.8996
31.1064
30.2421
29.2928
28.244
27.0845
25.8117
24.4372
22.9885
21.5065
20.0382
18.6255
17.2979
16.0699
14.9427
13.9084
12.9539
12.0645
11.2262
10.4266
9.65564
8.90535
8.16969
7.44417
6.72558
6.01163
5.30072
4.59177
3.88404
3.17705
2.47052
1.76425
1.05818
0.352321
35.2418
34.8515
34.3829
33.8398
33.2296
32.5572
31.8232
31.0238
30.1509
29.1938
28.1414
26.9865
25.7293
24.3819
22.969
21.5258
20.0926
18.706
17.3929
16.1683
15.0359
13.9908
13.023
12.1199
11.269
10.4586
9.67888
8.92177
8.18098
7.45173
6.7305
6.01473
5.3026
4.59285
3.88461
3.17733
2.47062
1.76426
1.05816
0.352281
35.05
34.7115
34.2786
33.7589
33.1625
32.4962
31.7625
30.959
30.0799
29.1169
28.062
26.9108
25.6657
24.339
22.9534
21.5399
20.1337
18.7674
17.4658
16.2442
15.1081
14.0548
13.0767
12.163
11.3021
10.4833
9.69665
8.93419
8.18941
7.45728
6.73403
6.01688
5.30384
4.5935
3.88492
3.17743
2.47062
1.76423
1.05813
0.35227
34.8838
34.5971
34.1985
33.7009
33.1176
32.4579
31.7258
30.9207
30.0381
29.0715
28.0149
26.8656
25.6275
24.3131
22.9438
21.5482
20.1583
18.8042
17.5095
16.2896
15.151
14.0926
13.108
12.1876
11.3208
10.4968
9.70607
8.94051
8.19346
7.45975
6.73543
6.01759
5.30412
4.59354
3.88482
3.17728
2.47047
1.76411
1.05807
0.352287
34.7676
34.5269
34.1571
33.677
33.1039
32.4497
31.7202
30.9156
30.0322
29.0643
28.0065
26.8569
25.6199
24.3082
22.9428
21.5515
20.1654
18.8137
17.5198
16.2992
15.159
14.0985
13.1117
12.1895
11.3212
10.4962
9.70491
8.93905
8.19194
7.4583
6.73414
6.01648
5.3032
4.5928
3.88424
3.17683
2.47013
1.76387
1.05794
0.352303
34.724
34.5216
34.1707
33.6993
33.1306
32.4791
31.752
30.9498
30.0686
29.1019
28.0437
26.8914
25.649
24.3291
22.9536
21.5512
20.1544
18.7934
17.4928
16.2684
15.1269
14.0674
13.0833
12.1646
11.3001
10.479
9.69115
8.92835
8.18378
7.4522
6.72964
6.01323
5.30088
4.59116
3.88309
3.17603
2.46957
1.76348
1.05768
0.352224
34.844
34.605
34.2299
33.7432
33.1655
32.51
31.7823
30.982
30.104
29.1405
28.084
26.9303
25.6824
24.3526
22.9637
21.5465
20.1357
18.764
17.4568
16.23
15.0898
14.034
13.0549
12.1416
11.2823
10.4655
9.68138
8.92143
8.17901
7.449
6.72757
6.01192
5.3001
4.59073
3.88288
3.17594
2.46954
1.76347
1.05764
0.352135
34.8836
34.5969
34.1982
33.7007
33.1174
32.4576
31.7256
30.9205
30.0379
29.0713
28.0146
26.8653
25.6272
24.3128
22.9434
21.5477
20.1577
18.8033
17.5085
16.2885
15.1499
14.0915
13.1069
12.1866
11.3199
10.496
9.70538
8.93993
8.19299
7.45937
6.73513
6.01736
5.30395
4.59342
3.88474
3.17722
2.47044
1.7641
1.05807
0.35229
34.9955
34.6581
34.2267
33.7092
33.114
32.4471
31.7107
30.9032
30.0197
29.0533
27.9979
26.8507
25.6151
24.3034
22.937
21.5446
20.1581
18.8077
17.5168
16.3002
15.1639
14.1068
13.1225
12.2015
11.3334
10.5078
9.7154
8.94818
8.19962
7.46459
6.73917
6.02043
5.30625
4.59512
3.88599
3.17814
2.47109
1.76456
1.05835
0.352322
35.162
34.768
34.2986
33.7564
33.1462
32.4711
31.7314
30.9241
30.0428
29.0795
28.0262
26.8785
25.6386
24.3182
22.94
21.5348
20.1374
18.7797
17.486
16.2704
15.1379
14.0858
13.1067
12.1905
11.3263
10.5037
9.71343
8.94762
8.19992
7.46535
6.74012
6.02141
5.30717
4.59593
3.88667
3.17869
2.47152
1.76487
1.05853
0.352352
35.3583
34.9069
34.398
33.83
33.204
32.5212
31.7799
30.9754
30.0995
29.1418
28.0916
26.9415
25.6913
24.3523
22.9492
21.5172
20.0965
18.7226
17.4212
16.2056
15.0786
14.0352
13.0658
12.1589
11.3029
10.4871
9.70203
8.94012
8.19521
7.46257
6.73862
6.02073
5.30697
4.596
3.88688
3.17894
2.47177
1.76507
1.05867
0.352416
35.5609
35.0562
34.5101
33.9174
33.2769
32.5878
31.8469
31.0477
30.1799
29.2303
28.1846
27.0311
25.7665
24.4011
22.9624
21.4924
20.0385
18.6419
17.3299
16.1146
14.9952
13.9636
13.0074
12.1132
11.2685
10.462
9.68429
8.92795
8.18714
7.4574
6.73544
6.01888
5.30599
4.59555
3.88674
3.17897
2.47188
1.7652
1.05879
0.352515
35.7494
35.1988
34.6203
34.0062
33.3536
32.6602
31.9214
31.1293
30.2717
29.3321
28.2924
27.136
25.8551
24.4588
22.978
21.4624
19.9694
18.5469
17.2238
16.0096
14.8999
13.8821
12.941
12.0613
11.2293
10.4332
9.66377
8.91372
8.17753
7.4511
6.73146
6.01646
5.30459
4.59481
3.8864
3.17887
2.4719
1.76528
1.05889
0.352634
35.9066
35.3199
34.7159
34.085
33.4232
32.7272
31.9916
31.2073
30.3601
29.4314
28.3986
27.2406
25.9447
24.5177
22.9937
21.4314
19.8989
18.4513
17.1184
15.9068
14.8074
13.8037
12.8776
12.0119
11.1919
10.4058
9.64417
8.90007
8.16826
7.44498
6.72753
6.01403
5.30316
4.59402
3.886
3.17871
2.47188
1.76533
1.05898
0.352753
36.0192
35.4077
34.7861
34.1437
33.4758
32.7786
32.0461
31.2684
30.4303
29.5108
28.4847
27.3264
26.0192
24.5673
23.007
21.4051
19.8397
18.3721
17.0325
15.8241
14.7338
13.7418
12.8278
11.9732
11.1628
10.3844
9.62891
8.88943
8.16102
7.44018
6.72444
6.0121
5.30201
4.59337
3.88567
3.17857
2.47184
1.76536
1.05904
0.352848
36.0778
35.4538
34.8232
34.1749
33.504
32.8064
32.0759
31.302
30.469
29.555
28.533
27.3751
26.062
24.5962
23.0147
21.3898
19.8054
18.3267
16.984
15.7779
14.693
13.7078
12.8005
11.9521
11.1469
10.3728
9.62062
8.88365
8.15709
7.43757
6.72276
6.01105
5.30138
4.59301
3.88549
3.17849
2.47182
1.76537
1.05908
0.352901
36.0778
35.4538
34.8232
34.1749
33.5041
32.8065
32.0759
31.302
30.469
29.555
28.533
27.3751
26.062
24.5962
23.0147
21.3898
19.8054
18.3268
16.9841
15.7781
14.6932
13.7079
12.8006
11.9522
11.147
10.3729
9.62069
8.88371
8.15714
7.43761
6.72279
6.01108
5.3014
4.59303
3.8855
3.1785
2.47183
1.76538
1.05908
0.3529
36.0192
35.4078
34.7862
34.1437
33.4758
32.7786
32.0462
31.2685
30.4303
29.5108
28.4847
27.3264
26.0191
24.5673
23.007
21.4052
19.8399
18.3723
17.0328
15.8245
14.7342
13.7422
12.8281
11.9735
11.1631
10.3847
9.62913
8.88962
8.16118
7.44031
6.72454
6.01218
5.30207
4.59342
3.8857
3.17859
2.47186
1.76537
1.05905
0.352846
35.9067
35.3201
34.716
34.0851
33.4233
32.7273
31.9917
31.2074
30.3603
29.4315
28.3987
27.2406
25.9447
24.5177
22.9937
21.4316
19.8992
18.4517
17.1189
15.9074
14.808
13.8043
12.8781
12.0124
11.1924
10.4062
9.64453
8.90037
8.16851
7.44518
6.72769
6.01416
5.30326
4.59409
3.88606
3.17875
2.4719
1.76535
1.05898
0.352749
35.7495
35.1989
34.6205
34.0064
33.3538
32.6603
31.9216
31.1295
30.2718
29.3323
28.2925
27.1361
25.8552
24.4589
22.9781
21.4627
19.9698
18.5474
17.2244
16.0104
14.9006
13.8829
12.9418
12.062
11.2299
10.4337
9.66424
8.91412
8.17786
7.45137
6.73167
6.01663
5.30472
4.59491
3.88647
3.17892
2.47193
1.7653
1.0589
0.352628
35.5611
35.0564
34.5103
33.9175
33.2771
32.588
31.8471
31.0479
30.1801
29.2305
28.1848
27.0313
25.7666
24.4012
22.9626
21.4927
20.0389
18.6425
17.3307
16.1154
14.9961
13.9645
13.0082
12.1141
11.2692
10.4626
9.68485
8.92843
8.18753
7.45772
6.7357
6.01908
5.30614
4.59567
3.88682
3.17903
2.47191
1.76522
1.05879
0.352508
35.3585
34.9071
34.3983
33.8302
33.2042
32.5214
31.7802
30.9757
30.0998
29.142
28.0919
26.9417
25.6915
24.3525
22.9494
21.5176
20.097
18.7233
17.422
16.2066
15.0796
14.0362
13.0668
12.1598
11.3038
10.4878
9.70265
8.94064
8.19565
7.46293
6.73891
6.02095
5.30714
4.59613
3.88696
3.179
2.47181
1.76509
1.05867
0.352408
35.1623
34.7682
34.2988
33.7567
33.1464
32.4713
31.7316
30.9243
30.0431
29.0797
28.0265
26.8787
25.6388
24.3185
22.9403
21.5352
20.138
18.7805
17.4869
16.2714
15.139
14.0869
13.1078
12.1915
11.3272
10.5045
9.7141
8.94818
8.20038
7.46572
6.74042
6.02164
5.30734
4.59606
3.88676
3.17875
2.47156
1.76489
1.05853
0.352344
34.9958
34.6584
34.227
33.7095
33.1142
32.4473
31.711
30.9035
30.0199
29.0536
27.9982
26.8509
25.6153
24.3037
22.9374
21.5451
20.1588
18.8086
17.5178
16.3012
15.165
14.1079
13.1235
12.2025
11.3343
10.5086
9.71608
8.94875
8.20009
7.46497
6.73947
6.02066
5.30642
4.59524
3.88607
3.17819
2.47112
1.76457
1.05834
0.352312
34.8838
34.5971
34.1985
33.7009
33.1176
32.4579
31.7258
30.9207
30.0381
29.0715
28.0148
26.8655
25.6275
24.3131
22.9438
21.5483
20.1584
18.8042
17.5095
16.2896
15.151
14.0926
13.108
12.1876
11.3208
10.4968
9.70605
8.94048
8.19344
7.45973
6.73541
6.01757
5.3041
4.59352
3.88481
3.17727
2.47046
1.7641
1.05807
0.35228
34.8442
34.6052
34.2301
33.7434
33.1658
32.5102
31.7825
30.9822
30.1043
29.1408
28.0843
26.9306
25.6826
24.3528
22.964
21.547
20.1364
18.7648
17.4578
16.2311
15.0909
14.0351
13.056
12.1426
11.2831
10.4663
9.68201
8.92195
8.17943
7.44933
6.72782
6.01211
5.30023
4.59081
3.88293
3.17597
2.46955
1.76346
1.05762
0.352119
35.0071
34.7259
34.3208
33.8146
33.2256
32.5655
31.8385
31.0427
30.1712
29.2137
28.1601
27.0034
25.7447
24.396
22.982
21.5371
20.1007
18.7091
17.39
16.1593
15.0217
13.973
13.0032
12.0998
11.2498
10.4411
9.66355
8.90878
8.17027
7.44311
6.72371
6.00947
5.29859
4.58984
3.88238
3.17569
2.46941
1.76339
1.05756
0.352049
35.0498
34.7113
34.2783
33.7587
33.1623
32.496
31.7622
30.9587
30.0796
29.1166
28.0617
26.9105
25.6654
24.3387
22.953
21.5394
20.1331
18.7666
17.4649
16.2432
15.107
14.0538
13.0757
12.162
11.3013
10.4825
9.69599
8.93363
8.18894
7.4569
6.73373
6.01665
5.30366
4.59338
3.88483
3.17737
2.47058
1.76421
1.05813
0.352273
35.162
34.768
34.2986
33.7564
33.1462
32.471
31.7314
30.9241
30.0428
29.0794
28.0262
26.8785
25.6385
24.3182
22.9399
21.5347
20.1374
18.7797
17.486
16.2705
15.1379
14.0859
13.1068
12.1905
11.3263
10.5037
9.71344
8.94763
8.19992
7.46535
6.74013
6.02142
5.30717
4.59593
3.88667
3.17869
2.47152
1.76487
1.05853
0.352352
35.3302