# vtk DataFile Version 2.0
I need something to put here
ASCII

DATASET STRUCTURED_GRID
DIMENSIONS 41 21 21
POINTS 18081 float
0.000000 0.000000 0.000000
0.100000 0.000000 0.000000
0.200000 0.000000 0.000000
0.300000 0.000000 0.000000
0.400000 0.000000 0.000000
0.500000 0.000000 0.000000
0.600000 0.000000 0.000000
0.700000 0.000000 0.000000
0.800000 0.000000 0.000000
0.900000 0.000000 0.000000
1.000000 0.000000 0.000000
1.100000 0.000000 0.000000
1.200000 0.000000 0.000000
1.300000 0.000000 0.000000
1.400000 0.000000 0.000000
1.500000 0.000000 0.000000
1.600000 0.000000 0.000000
1.700000 0.000000 0.000000
1.800000 0.000000 0.000000
1.900000 0.000000 0.000000
2.000000 0.000000 0.000000
2.100000 0.000000 0.000000
2.200000 0.000000 0.000000
2.300000 0.000000 0.000000
2.400000 0.000000 0.000000
2.500000 0.000000 0.000000
2.600000 0.000000 0.000000
2.700000 0.000000 0.000000
2.800000 0.000000 0.000000
2.900000 0.000000 0.000000
3.000000 0.000000 0.000000
3.100000 0.000000 0.000000
3.200000 0.000000 0.000000
3.300000 0.000000 0.000000
3.400000 0.000000 0.000000
3.500000 0.000000 0.000000
3.600000 0.000000 0.000000
3.700000 0.000000 0.000000
3.800000 0.000000 0.000000
3.900000 0.000000 0.000000
4.000000 0.000000 0.000000
0.000000 0.100000 0.000000
0.100000 0.100000 0.000000
0.200000 0.100000 0.000000
0.300000 0.100000 0.000000
0.400000 0.100000 0.000000
0.500000 0.100000 0.000000
0.600000 0.100000 0.000000
0.700000 0.100000 0.000000
0.800000 0.100000 0.000000
0.900000 0.100000 0.000000
1.000000 0.100000 0.000000
1.100000 0.100000 0.000000
1.200000 0.100000 0.000000
1.300000 0.100000 0.000000
1.400000 0.100000 0.000000
1.500000 0.100000 0.000000
1.600000 0.100000 0.000000
1.700000 0.100000 0.000000
1.800000 0.100000 0.000000
1.900000 0.100000 0.000000
2.000000 0.100000 0.000000
2.100000 0.100000 0.000000
2.200000 0.100000 0.000000
2.300000 0.100000 0.000000
2.400000 0.100000 0.000000
2.500000 0.100000 0.000000
2.600000 0.100000 0.000000
2.700000 0.100000 0.000000
2.800000 0.100000 0.000000
2.900000 0.100000 0.000000
3.000000 0.100000 0.000000
3.100000 0.100000 0.000000
3.200000 0.100000 0.000000
3.300000 0.100000 0.000000
3.400000 0.100000 0.000000
3.500000 0.100000 0.000000
3.600000 0.100000 0.000000
3.700000 0.100000 0.000000
3.800000 0.100000 0.000000
3.900000 0.100000 0.000000
4.000000 0.100000 0.000000
0.000000 0.200000 0.000000
0.100000 0.200000 0.000000
0.200000 0.200000 0.000000
0.300000 0.200000 0.000000
0.400000 0.200000 0.000000
0.500000 0.200000 0.000000
0.600000 0.200000 0.000000
0.700000 0.200000 0.000000
0.800000 0.200000 0.000000
0.900000 0.200000 0.000000
1.000000 0.200000 0.000000
1.100000 0.200000 0.000000
1.200000 0.200000 0.000000
1.300000 0.200000 0.000000
1.400000 0.200000 0.000000
1.500000 0.200000 0.000000
1.600000 0.200000 0.000000
1.700000 0.200000 0.000000
1.800000 0.200000 0.000000
1.900000 0.200000 0.000000
2.000000 0.200000 0.000000
2.100000 0.200000 0.000000
2.200000 0.200000 0.000000
2.300000 0.200000 0.000000
2.400000 0.200000 0.000000
2.500000 0.200000 0.000000
2.600000 0.200000 0.000000
2.700000 0.200000 0.000000
2.800000 0.200000 0.000000
2.900000 0.200000 0.000000
3.000000 0.200000 0.000000
3.100000 0.200000 0.000000
3.200000 0.200000 0.000000
3.300000 0.200000 0.000000
3.400000 0.200000 0.000000
3.500000 0.200000 0.000000
3.600000 0.200000 0.000000
3.700000 0.200000 0.000000
3.800000 0.200000 0.000000
3.900000 0.200000 0.000000
4.000000 0.200000 0.000000
0.000000 0.300000 0.000000
0.100000 0.300000 0.000000
0.200000 0.300000 0.000000
0.300000 0.300000 0.000000
0.400000 0.300000 0.000000
0.500000 0.300000 0.000000
0.600000 0.300000 0.000000
0.700000 0.300000 0.000000
0.800000 0.300000 0.000000
0.900000 0.300000 0.000000
1.000000 0.300000 0.000000
1.100000 0.300000 0.000000
1.200000 0.300000 0.000000
1.300000 0.300000 0.000000
1.400000 0.300000 0.000000
1.500000 0.300000 0.000000
1.600000 0.300000 0.000000
1.700000 0.300000 0.000000
1.800000 0.300000 0.000000
1.900000 0.300000 0.000000
2.000000 0.300000 0.000000
2.100000 0.300000 0.000000
2.200000 0.300000 0.000000
2.300000 0.300000 0.000000
2.400000 0.300000 0.000000
2.500000 0.300000 0.000000
2.600000 0.300000 0.000000
2.700000 0.300000 0.000000
2.800000 0.300000 0.000000
2.900000 0.300000 0.000000
3.000000 0.300000 0.000000
3.100000 0.300000 0.000000
3.200000 0.300000 0.000000
3.300000 0.300000 0.000000
3.400000 0.300000 0.000000
3.500000 0.300000 0.000000
3.600000 0.300000 0.000000
3.700000 0.300000 0.000000
3.800000 0.300000 0.000000
3.900000 0.300000 0.000000
4.000000 0.300000 0.000000
0.000000 0.400000 0.000000
0.100000 0.400000 0.000000
0.200000 0.400000 0.000000
0.300000 0.400000 0.000000
0.400000 0.400000 0.000000
0.500000 0.400000 0.000000
0.600000 0.400000 0.000000
0.700000 0.400000 0.000000
0.800000 0.400000 0.000000
0.900000 0.400000 0.000000
1.000000 0.400000 0.000000
1.100000 0.400000 0.000000
1.200000 0.400000 0.000000
1.300000 0.400000 0.000000
1.400000 0.400000 0.000000
1.500000 0.400000 0.000000
1.600000 0.400000 0.000000
1.700000 0.400000 0.000000
1.800000 0.400000 0.000000
1.900000 0.400000 0.000000
2.000000 0.400000 0.000000
2.100000 0.400000 0.000000
2.200000 0.400000 0.000000
2.300000 0.400000 0.000000
2.400000 0.400000 0.000000
2.500000 0.400000 0.000000
2.600000 0.400000 0.000000
2.700000 0.400000 0.000000
2.800000 0.400000 0.000000
2.900000 0.400000 0.000000
3.000000 0.400000 0.000000
3.100000 0.400000 0.000000
3.200000 0.400000 0.000000
3.300000 0.400000 0.000000
3.400000 0.400000 0.000000
3.500000 0.400000 0.000000
3.600000 0.400000 0.000000
3.700000 0.400000 0.000000
3.800000 0.400000 0.000000
3.900000 0.400000 0.000000
4.000000 0.400000 0.000000
0.000000 0.500000 0.000000
0.100000 0.500000 0.000000
0.200000 0.500000 0.000000
0.300000 0.500000 0.000000
0.400000 0.500000 0.000000
0.500000 0.500000 0.000000
0.600000 0.500000 0.000000
0.700000 0.500000 0.000000
0.800000 0.500000 0.000000
0.900000 0.500000 0.000000
1.000000 0.500000 0.000000
1.100000 0.500000 0.000000
1.200000 0.500000 0.000000
1.300000 0.500000 0.000000
1.400000 0.500000 0.000000
1.500000 0.500000 0.000000
1.600000 0.500000 0.000000
1.700000 0.500000 0.000000
1.800000 0.500000 0.000000
1.900000 0.500000 0.000000
2.000000 0.500000 0.000000
2.100000 0.500000 0.000000
2.200000 0.500000 0.000000
2.300000 0.500000 0.000000
2.400000 0.500000 0.000000
2.500000 0.500000 0.000000
2.600000 0.500000 0.000000
2.700000 0.500000 0.000000
2.800000 0.500000 0.000000
2.900000 0.500000 0.000000
3.000000 0.500000 0.000000
3.100000 0.500000 0.000000
3.200000 0.500000 0.000000
3.300000 0.500000 0.000000
3.400000 0.500000 0.000000
3.500000 0.500000 0.000000
3.600000 0.500000 0.000000
3.700000 0.500000 0.000000
3.800000 0.500000 0.000000
3.900000 0.500000 0.000000
4.000000 0.500000 0.000000
0.000000 0.600000 0.000000
0.100000 0.600000 0.000000
0.200000 0.600000 0.000000
0.300000 0.600000 0.000000
0.400000 0.600000 0.000000
0.500000 0.600000 0.000000
0.600000 0.600000 0.000000
0.700000 0.600000 0.000000
0.800000 0.600000 0.000000
0.900000 0.600000 0.000000
1.000000 0.600000 0.000000
1.100000 0.600000 0.000000
1.200000 0.600000 0.000000
1.300000 0.600000 0.000000
1.400000 0.600000 0.000000
1.500000 0.600000 0.000000
1.600000 0.600000 0.000000
1.700000 0.600000 0.000000
1.800000 0.600000 0.000000
1.900000 0.600000 0.000000
2.000000 0.600000 0.000000
2.100000 0.600000 0.000000
2.200000 0.600000 0.000000
2.300000 0.600000 0.000000
2.400000 0.600000 0.000000
2.500000 0.600000 0.000000
2.600000 0.600000 0.000000
2.700000 0.600000 0.000000
2.800000 0.600000 0.000000
2.900000 0.600000 0.000000
3.000000 0.600000 0.000000
3.100000 0.600000 0.000000
3.200000 0.600000 0.000000
3.300000 0.600000 0.000000
3.400000 0.600000 0.000000
3.500000 0.600000 0.000000
3.600000 0.600000 0.000000
3.700000 0.600000 0.000000
3.800000 0.600000 0.000000
3.900000 0.600000 0.000000
4.000000 0.600000 0.000000
0.000000 0.700000 0.000000
0.100000 0.700000 0.000000
0.200000 0.700000 0.000000
0.300000 0.700000 0.000000
0.400000 0.700000 0.000000
0.500000 0.700000 0.000000
0.600000 0.700000 0.000000
0.700000 0.700000 0.000000
0.800000 0.700000 0.000000
0.900000 0.700000 0.000000
1.000000 0.700000 0.000000
1.100000 0.700000 0.000000
1.200000 0.700000 0.000000
1.300000 0.700000 0.000000
1.400000 0.700000 0.000000
1.500000 0.700000 0.000000
1.600000 0.700000 0.000000
1.700000 0.700000 0.000000
1.800000 0.700000 0.000000
1.900000 0.700000 0.000000
2.000000 0.700000 0.000000
2.100000 0.700000 0.000000
2.200000 0.700000 0.000000
2.300000 0.700000 0.000000
2.400000 0.700000 0.000000
2.500000 0.700000 0.000000
2.600000 0.700000 0.000000
2.700000 0.700000 0.000000
2.800000 0.700000 0.000000
2.900000 0.700000 0.000000
3.000000 0.700000 0.000000
3.100000 0.700000 0.000000
3.200000 0.700000 0.000000
3.300000 0.700000 0.000000
3.400000 0.700000 0.000000
3.500000 0.700000 0.000000
3.600000 0.700000 0.000000
3.700000 0.700000 0.000000
3.800000 0.700000 0.000000
3.900000 0.700000 0.000000
4.000000 0.700000 0.000000
0.000000 0.800000 0.000000
0.100000 0.800000 0.000000
0.200000 0.800000 0.000000
0.300000 0.800000 0.000000
0.400000 0.800000 0.000000
0.500000 0.800000 0.000000
0.600000 0.800000 0.000000
0.700000 0.800000 0.000000
0.800000 0.800000 0.000000
0.900000 0.800000 0.000000
1.000000 0.800000 0.000000
1.100000 0.800000 0.000000
1.200000 0.800000 0.000000
1.300000 0.800000 0.000000
1.400000 0.800000 0.000000
1.500000 0.800000 0.000000
1.600000 0.800000 0.000000
1.700000 0.800000 0.000000
1.800000 0.800000 0.000000
1.900000 0.800000 0.000000
2.000000 0.800000 0.000000
2.100000 0.800000 0.000000
2.200000 0.800000 0.000000
2.300000 0.800000 0.000000
2.400000 0.800000 0.000000
2.500000 0.800000 0.000000
2.600000 0.800000 0.000000
2.700000 0.800000 0.000000
2.800000 0.800000 0.000000
2.900000 0.800000 0.000000
3.000000 0.800000 0.000000
3.100000 0.800000 0.000000
3.200000 0.800000 0.000000
3.300000 0.800000 0.000000
3.400000 0.800000 0.000000
3.500000 0.800000 0.000000
3.600000 0.800000 0.000000
[...]
CELL_DATA 16000
SCALARS pressure float 1
LOOKUP_TABLE default
38.0693
37.8956
37.5576
37.0833
36.4941
35.8021
35.011
34.118
33.1168
32.0004
30.7652
29.4142
27.9589
26.4201
24.8255
23.2072
21.5985
20.0306
18.5304
17.1177
15.8043
14.5937
13.4816
12.4585
11.5117
10.6275
9.79293
8.99625
8.22777
7.47972
6.7461
6.02244
5.30549
4.59296
3.88326
3.17532
2.46846
1.76231
1.05671
0.351767
38.1233
37.9253
37.5738
37.0921
36.499
35.805
35.0133
34.1206
33.12
32.0042
30.7694
29.418
27.9619
26.4218
24.8258
23.206
21.596
20.0271
18.5263
17.1135
15.8006
14.5907
13.4795
12.4573
11.5113
10.6277
9.79351
8.99703
8.22862
7.48055
6.74685
6.02309
5.30603
4.5934
3.8836
3.17559
2.46866
1.76244
1.05676
0.351683
38.2443
38.0115
37.6376
37.1422
36.5418
35.8456
35.0551
34.1656
33.1688
32.0553
30.8196
29.4631
27.9975
26.4447
24.8341
23.1995
21.5757
19.9952
18.4859
17.0686
15.755
14.5479
13.4418
12.4258
11.4862
10.6085
9.7793
8.98687
8.22157
7.4758
6.74376
6.02114
5.30486
4.59274
3.88326
3.17542
2.46859
1.76238
1.05664
0.351507
38.4128
38.1392
37.7375
37.225
36.6163
35.9188
35.1322
34.2497
33.26
32.1507
30.913
29.5466
28.0631
26.4863
24.8484
23.1861
21.5365
19.9343
18.4093
16.9835
15.669
14.4671
13.3706
12.3662
11.4384
10.5717
9.75183
8.96698
8.20756
7.46618
6.73732
6.01696
5.30222
4.59113
3.88232
3.17489
2.46829
1.76218
1.05647
0.351348
38.6081
38.2934
37.8623
37.3319
36.7154
36.0186
35.2392
34.3676
33.3887
32.2858
31.0455
29.6646
28.1552
26.5437
24.8669
23.1649
21.4788
19.8459
18.2987
16.8612
15.5459
14.3521
13.2695
12.2819
11.3711
10.5199
9.71324
8.93902
8.18783
7.45259
6.72818
6.01096
5.29839
4.58876
3.8809
3.17408
2.46783
1.76191
1.05629
0.351242
38.8098
38.4575
37.9987
37.4517
36.8291
36.1354
35.3663
34.509
33.5443
32.4498
31.2068
29.8085
28.2668
26.6127
24.8878
23.1374
21.4064
19.736
18.1619
16.7108
15.3952
14.2121
13.1473
12.1805
11.2905
10.4581
9.66732
8.90583
8.16442
7.43647
6.71733
6.00383
5.29383
4.58591
3.87919
3.17309
2.46728
1.76162
1.05614
0.351191
38.9988
38.6146
38.1321
37.5713
36.9447
36.2561
35.4991
34.6583
33.7098
32.6254
31.3803
29.9633
28.3869
26.6863
24.9094
23.1065
21.3273
19.6165
18.0137
16.5484
15.2334
14.0627
13.0176
12.0735
11.2058
10.3934
9.61943
8.8713
8.14012
7.41975
6.70609
5.99644
5.28909
4.58296
3.87741
3.17206
2.46671
1.76133
1.05601
0.351186
39.1578
38.7489
38.2479
37.6767
37.0482
36.3653
35.6207
34.7961
33.8635
32.7894
31.543
30.1091
28.5
26.7556
24.9294
23.0769
21.2521
19.5034
17.8739
16.3959
15.0821
13.9237
12.8976
11.9749
11.1282
10.3344
9.57583
8.83994
8.11809
7.40462
6.69593
5.98976
5.28481
4.58029
3.8758
3.17113
2.46621
1.76108
1.05593
0.351208
39.2724
38.8468
38.3333
37.7552
37.126
36.4483
35.7137
34.902
33.9824
32.9169
31.6699
30.2232
28.5889
26.8103
24.9454
23.0536
21.1929
19.4147
17.7645
16.277
14.9647
13.8163
12.8051
11.8993
11.0688
10.2893
9.54263
8.8161
8.10138
7.39316
6.68823
5.98471
5.28157
4.57828
3.87458
3.17043
2.46583
1.76091
1.05588
0.351236
39.3325
38.8984
38.3786
37.7972
37.1679
36.4932
35.7641
34.9597
34.0473
32.9866
31.7397
30.2861
28.638
26.8406
24.9543
23.0408
21.1603
19.3658
17.7044
16.2119
14.9005
13.7577
12.7548
11.8582
11.0366
10.2649
9.52469
8.80324
8.09236
7.38698
6.68408
5.98199
5.27983
4.57719
3.87393
3.17005
2.46563
1.76081
1.05585
0.351255
39.3326
38.8985
38.3787
37.7973
37.168
36.4933
35.7643
34.9599
34.0475
32.9868
31.7398
30.2862
28.6381
26.8407
24.9544
23.0409
21.1604
19.3659
17.7045
16.212
14.9006
13.7577
12.7548
11.8582
11.0366
10.2649
9.52468
8.80323
8.09235
7.38697
6.68407
5.98198
5.27982
4.57718
3.87393
3.17005
2.46563
1.76081
1.05585
0.351254
39.2727
38.8471
38.3336
37.7556
37.1264
36.4487
35.7141
34.9024
33.9828
32.9173
31.6703
30.2236
28.5892
26.8106
24.9456
23.0539
21.1932
19.4149
17.7647
16.2772
14.9648
13.8164
12.8052
11.8993
11.0688
10.2893
9.5426
8.81607
8.10135
7.39313
6.6882
5.98469
5.28155
4.57826
3.87457
3.17042
2.46583
1.7609
1.05588
0.351232
39.1583
38.7494
38.2485
37.6772
37.0487
36.3659
35.6213
34.7967
33.8642
32.7902
31.5437
30.1098
28.5006
26.7562
24.9299
23.0773
21.2525
19.5037
17.8741
16.3961
15.0823
13.9238
12.8976
11.9749
11.1282
10.3343
9.57576
8.83987
8.11803
7.40457
6.69588
5.98973
5.28478
4.58027
3.87578
3.17112
2.4662
1.76108
1.05592
0.351201
38.9995
38.6153
38.1328
37.572
36.9455
36.2569
35.5
34.6593
33.7109
32.6265
31.3813
29.9644
28.3878
26.6871
24.91
23.107
21.3276
19.6168
18.0139
16.5485
15.2334
14.0627
13.0175
12.0734
11.2057
10.3933
9.61932
8.8712
8.14003
7.41968
6.70603
5.99639
5.28905
4.58293
3.87739
3.17204
2.4667
1.76132
1.05601
0.351177
38.8107
38.4583
37.9996
37.4526
36.8301
36.1364
35.3674
34.5102
33.5456
32.4512
31.2082
29.8098
28.2681
26.6137
24.8886
23.1379
21.4068
19.7362
18.162
16.7108
15.3951
14.212
13.1471
12.1803
11.2903
10.4579
9.66716
8.90569
8.1643
7.43637
6.71725
6.00377
5.29378
4.58588
3.87916
3.17307
2.46726
1.7616
1.05613
0.351181
38.6091
38.2944
37.8633
37.3329
36.7165
36.0198
35.2405
34.369
33.3903
32.2874
31.0471
29.6662
28.1566
26.5449
24.8678
23.1656
21.4791
19.846
18.2986
16.861
15.5456
14.3518
13.2692
12.2816
11.3708
10.5196
9.71303
8.93885
8.18768
7.45247
6.72809
6.01089
5.29834
4.58871
3.88087
3.17405
2.46781
1.7619
1.05628
0.351231
38.4139
38.1403
37.7386
37.2261
36.6175
35.9201
35.1337
34.2513
33.2617
32.1526
30.9149
29.5484
28.0647
26.4876
24.8494
23.1867
21.5368
19.9344
18.4091
16.9832
15.6686
14.4667
13.3701
12.3658
11.4381
10.5714
9.75158
8.96677
8.20739
7.46605
6.73721
6.01687
5.30216
4.59108
3.88228
3.17487
2.46827
1.76217
1.05646
0.351339
38.2455
38.0126
37.6387
37.1434
36.5431
35.847
35.0566
34.1673
33.1706
32.0572
30.8215
29.4649
27.9992
26.4461
24.8352
23.2002
21.576
19.9952
18.4857
17.0682
15.7546
14.5474
13.4413
12.4254
11.4858
10.6082
9.77902
8.98664
8.22139
7.47565
6.74364
6.02105
5.3048
4.59269
3.88322
3.1754
2.46857
1.76236
1.05663
0.351498
38.1244
37.9265
37.575
37.0934
36.5003
35.8064
35.0148
34.1222
33.1218
32.0062
30.7713
29.4199
27.9636
26.4232
24.8268
23.2067
21.5963
20.0272
18.526
17.1131
15.8001
14.5902
13.479
12.4568
11.5109
10.6274
9.79321
8.99679
8.22843
7.48039
6.74673
6.023
5.30596
4.59335
3.88357
3.17556
2.46865
1.76243
1.05675
0.351677
38.0704
37.8968
37.5587
37.0845
36.4954
35.8035
35.0125
34.1197
33.1186
32.0023
30.7672
29.416
27.9606
26.4215
24.8266
23.208
21.5989
20.0307
18.5301
17.1172
15.8038
14.5932
13.4811
12.458
11.5113
10.6272
9.79262
8.99601
8.22758
7.47957
6.74598
6.02235
5.30543
4.59291
3.88322
3.17529
2.46845
1.7623
1.05671
0.351765
38.1233
37.9253
37.5738
37.0921
36.499
35.805
35.0133
34.1205
33.1199
32.0042
30.7693
29.418
27.9619
26.4218
24.8257
23.206
21.596
20.0271
18.5263
17.1135
15.8006
14.5907
13.4796
12.4573
11.5113
10.6277
9.79352
8.99704
8.22863
7.48055
6.74685
6.02309
5.30604
4.5934
3.8836
3.17559
2.46866
1.76244
1.05676
0.351683
38.1627
37.9273
37.556
37.064
36.465
35.7669
34.9715
34.0757
33.0731
31.957
30.7241
29.3776
27.9292
26.3992
24.8148
23.2072
21.609
20.0506
18.558
17.1508
15.8404
14.6305
13.517
12.4911
11.5405
10.6521
9.81327
9.01266
8.2407
7.4897
6.75366
6.02807
5.30963
4.59596
3.88541
3.17685
2.46956
1.76308
1.0572
0.35181
38.2772
37.9977
37.5983
37.0892
36.4803
35.7771
34.9799
34.0842
33.0826
31.9676
30.735
29.3873
27.9362
26.4025
24.8141
23.2027
21.6011
20.0403
18.5463
17.139
15.8298
14.6218
13.5108
12.4872
11.5386
10.6519
9.8141
9.01412
8.24245
7.49149
6.75534
6.02956
5.31089
4.597
3.88624
3.17751
2.47005
1.76343
1.05738
0.351773
38.4471
38.1172
37.6847
37.1549
36.5346
35.8268
35.03
34.1376
33.1401
32.0275
30.7934
29.4389
27.9758
26.4263
24.8201
23.191
21.5733
19.9991
18.4957
17.0838
15.7749
14.5712
13.467
12.4513
11.5106
10.6309
9.79905
9.00372
8.23554
7.4871
6.7527
6.02809
5.31017
4.59673
3.88624
3.17763
2.47022
1.76357
1.05745
0.351736
38.6484
38.2671
37.8002
37.249
36.6175
35.9068
35.1129
34.227
33.2363
32.1275
30.8907
29.5248
28.0417
26.4659
24.8305
23.1719
21.5274
19.9308
18.4117
16.9919
15.6831
14.486
13.3926
12.3896
11.4617
10.5935
9.77147
8.984
8.22186
7.47789
6.74669
6.02431
5.30789
4.59544
3.88556
3.17732
2.47011
1.76356
1.05746
0.35174
38.8581
38.4289
37.9296
37.3584
36.7173
36.0056
35.2172
34.3406
33.3595
32.256
31.0159
29.6352
28.126
26.5163
24.8432
23.147
21.4679
19.8427
18.3032
16.8734
15.5649
14.3765
13.2971
12.3105
11.3988
10.5453
9.73571
8.95823
8.20379
7.46555
6.73849
6.01901
5.30459
4.59346
3.88444
3.17673
2.46984
1.76346
1.05745
0.351791
39.055
38.5848
38.0574
37.4691
36.8206
36.1098
35.3288
34.4633
33.4933
32.3963
31.1532
29.7566
28.2187
26.5715
24.8569
23.1192
21.4023
19.7455
18.1836
16.7432
15.4356
14.2573
13.1936
12.2248
11.3308
10.4933
9.69707
8.93033
8.18415
7.45207
6.72947
6.01314
5.30087
4.59119
3.88312
3.17601
2.46948
1.76332
1.05744
0.351876
39.2208
38.7183
38.1687
37.5672
36.9138
36.2051
35.4319
34.5775
33.6187
32.5286
31.2833
29.872
28.3068
26.624
24.87
23.0927
21.3397
19.6531
18.0703
16.6201
15.314
14.1456
13.0969
12.1451
11.2678
10.4451
9.6613
8.9045
8.16597
7.43957
6.72108
6.00765
5.29738
4.58904
3.88185
3.1753
2.46913
1.76318
1.05744
0.351972
39.3403
38.8156
38.2509
37.6406
36.9841
36.2778
35.5111
34.6658
33.7161
32.6317
31.3851
29.9626
28.3765
26.6658
24.8805
23.0719
21.2904
19.5804
17.9814
16.524
15.2193
14.0589
13.0221
12.0837
11.2192
10.408
9.63386
8.8847
8.15202
7.42998
6.71463
6.00342
5.29468
4.58738
3.88086
3.17475
2.46885
1.76307
1.05744
0.352053
39.4029
38.867
38.2945
37.6797
37.022
36.3171
35.5541
34.7138
33.7693
32.6882
31.441
30.0126
28.415
26.6891
24.8865
23.0605
21.2631
19.5404
17.9326
16.4714
15.1676
14.0117
12.9815
12.0503
11.1929
10.3879
9.61898
8.87397
8.14447
7.42478
6.71114
6.00112
5.29321
4.58647
3.88032
3.17445
2.46869
1.76301
1.05744
0.3521
39.403
38.8671
38.2946
37.6798
37.0221
36.3172
35.5542
34.714
33.7694
32.6883
31.4411
30.0127
28.4151
26.6892
24.8866
23.0605
21.2632
19.5405
17.9327
16.4715
15.1677
14.0117
12.9815
12.0503
11.1929
10.3879
9.61897
8.87395
8.14445
7.42477
6.71113
6.00112
5.29321
4.58646
3.88031
3.17444
2.46869
1.76301
1.05744
0.3521
39.3406
38.816
38.2512
37.6409
36.9845
36.2781
35.5114
34.6661
33.7164
32.6321
31.3855
29.963
28.3768
26.666
24.8808
23.0721
21.2906
19.5807
17.9816
16.5242
15.2194
14.059
13.0222
12.0837
11.2192
10.408
9.63383
8.88466
8.15199
7.42995
6.71461
6.0034
5.29466
4.58736
3.88085
3.17474
2.46884
1.76307
1.05744
0.352052
39.2213
38.7188
38.1692
37.5678
36.9143
36.2057
35.4325
34.5782
33.6194
32.5293
31.284
29.8726
28.3074
26.6245
24.8704
23.0931
21.34
19.6534
18.0705
16.6203
15.3141
14.1456
13.0969
12.1451
11.2677
10.445
9.66124
8.90444
8.16591
7.43952
6.72104
6.00761
5.29735
4.58902
3.88183
3.17529
2.46912
1.76318
1.05744
0.35197
39.0558
38.5855
38.0581
37.4698
36.8214
36.1106
35.3297
34.4642
33.4943
32.3973
31.1542
29.7576
28.2196
26.5722
24.8575
23.1197
21.4026
19.7458
18.1838
16.7433
15.4357
14.2573
13.1935
12.2247
11.3307
10.4932
9.69696
8.93023
8.18407
7.452
6.72941
6.01309
5.30083
4.59116
3.88309
3.17599
2.46947
1.76332
1.05745
0.351873
38.859
38.4298
37.9305
37.3593
36.7182
36.0066
35.2183
34.3418
33.3607
32.2573
31.0172
29.6365
28.1272
26.5173
24.844
23.1476
21.4683
19.8429
18.3032
16.8733
15.5648
14.3764
13.297
12.3103
11.3986
10.5452
9.73556
8.95809
8.20367
7.46545
6.73841
6.01895
5.30454
4.59342
3.88441
3.17671
2.46983
1.76346
1.05746
0.351788
38.6494
38.2681
37.8012
37.2501
36.6186
35.9079
35.1142
34.2283
33.2378
32.1291
30.8923
29.5263
28.043
26.467
24.8313
23.1726
21.5277
19.931
18.4116
16.9917
15.6828
14.4857
13.3923
12.3893
11.4614
10.5933
9.77127
8.98382
8.22171
7.47777
6.74659
6.02423
5.30783
4.59539
3.88553
3.1773
2.4701
1.76355
1.05746
0.351736
38.4482
38.1183
37.6858
37.1561
36.5358
35.8281
35.0314
34.1391
33.1417
32.0292
30.7951
29.4406
27.9773
26.4276
24.8211
23.1916
21.5736
19.9991
18.4956
17.0836
15.7746
14.5708
13.4666
12.451
11.5103
10.6306
9.7988
9.00351
8.23537
7.48696
6.75259
6.028
5.31011
4.59669
3.8862
3.1776
2.4702
1.76356
1.05745
0.351732
38.2783
37.9989
37.5994
37.0904
36.4816
35.7785
34.9814
34.0858
33.0844
31.9695
30.7369
29.3891
27.9378
26.4039
24.8151
23.2033
21.6015
20.0403
18.5461
17.1386
15.8293
14.6213
13.5103
12.4868
11.5383
10.6515
9.81382
9.01389
8.24226
7.49134
6.75522
6.02947
5.31082
4.59695
3.88621
3.17748
2.47004
1.76343
1.05738
0.35177
38.1639
37.9285
37.5571
37.0652
36.4662
35.7682
34.9731
34.0774
33.0749
31.9589
30.726
29.3795
27.9309
26.4006
24.8158
23.2079
21.6094
20.0507
18.5578
17.1504
15.84
14.6299
13.5165
12.4906
11.54
10.6517
9.81297
9.01242
8.24051
7.48955
6.75354
6.02798
5.30956
4.59591
3.88537
3.17683
2.46954
1.76307
1.05719
0.351807
38.1244
37.9265
37.575
37.0933
36.5002
35.8064
35.0148
34.1222
33.1218
32.0061
30.7713
29.4199
27.9636
26.4232
24.8268
23.2067
21.5963
20.0272
18.526
17.1131
15.8001
14.5902
13.479
12.4569
11.5109
10.6274
9.79322
8.9968
8.22844
7.4804
6.74673
6.023
5.30597
4.59335
3.88357
3.17556
2.46865
1.76243
1.05676
0.351682
38.2443
38.0115
37.6376
37.1422
36.5418
35.8456
35.055
34.1656
33.1687
32.0553
30.8195
29.463
27.9975
26.4447
24.8341
23.1995
21.5757
19.9952
18.4859
17.0686
15.7551
14.548
13.4419
12.4259
11.4862
10.6085
9.77933
8.98689
8.22159
7.47581
6.74376
6.02115
5.30487
4.59274
3.88326
3.17542
2.46859
1.76238
1.05664
0.351507
38.2772
37.9977
37.5983
37.0892
36.4803
35.7771
34.9799
34.0842
33.0826
31.9676
30.735
29.3873
27.9362
26.4025
24.8141
23.2026
21.6011
20.0403
18.5463
17.139
15.8298
14.6218
13.5108
12.4872
11.5387
10.6519
9.81412
9.01413
8.24246
7.49149
6.75534
6.02956
5.31089
4.597
3.88624
3.17751
2.47006
1.76343
1.05738
0.351774
38.3847
38.0568
37.6248
37.0952
36.4736
35.7628
34.9612
34.0633
33.0613
31.947
30.7158
29.3699
27.921
26.3902
24.8056
23.1987
21.6021
20.0459
18.5561
17.1524
15.8461
14.64
13.5298
12.5059
11.5562
10.6676
9.82779
9.02562
8.25186
7.49901
6.76123
6.0341
5.31434
4.59958
3.88815
3.17891
2.47107
1.76415
1.05781
0.351819
38.553
38.17
37.7006
37.1471
36.5114
35.7937
34.9905
34.0943
33.0954
31.9835
30.7518
29.401
27.9431
26.4008
24.804
23.1858
21.5791
20.015
18.5202
17.1151
15.811
14.6098
13.5057
12.4881
11.5439
10.6599
9.82339
9.0236
8.25139
7.49947
6.76218
6.03524
5.31549
4.60065
3.88908
3.17969
2.4717
1.76461
1.05808
0.351861
38.7582
38.3178
37.8097
37.2315
36.5823
35.8595
35.0577
34.167
33.1747
32.067
30.8333
29.4719
27.9949
26.4285
24.8063
23.1634
21.5347
19.9522
18.4448
17.0346
15.7329
14.5397
13.4467
12.4409
11.5079
10.6335
9.80477
9.01097
8.24317
7.49438
6.75922
6.03368
5.31481
4.60048
3.88921
3.17994
2.47198
1.76487
1.05827
0.351954
38.9753
38.4805
37.9356
37.3343
36.6732
35.9478
35.1503
34.2685
33.286
32.1845
30.9485
29.5721
28.0681
26.4682
24.8105
23.1334
21.4737
19.8654
18.3396
16.922
15.6236
14.4413
13.3633
12.3737
11.4559
10.5946
9.77666
8.99125
8.22976
7.48554
6.75361
6.03027
5.31286
4.59947
3.88876
3.17983
2.47204
1.765
1.05842
0.352101
39.1812
38.6389
38.0617
37.4407
36.7703
36.0444
35.2535
34.3828
33.4125
32.3193
31.0814
29.6883
28.1528
26.5141
24.8159
23.0995
21.4042
19.766
18.2188
16.7929
15.4988
14.3297
13.2691
12.2977
11.3969
10.5504
9.74447
8.96846
8.21405
7.47501
6.74676
6.02597
5.31027
4.59799
3.888
3.17949
2.47195
1.76504
1.05855
0.352282
39.3554
38.7753
38.1725
37.536
36.8591
36.1344
35.3508
34.4917
33.5341
32.4499
31.2113
29.8026
28.2363
26.5599
24.8218
23.0667
21.3365
19.6691
18.101
16.6677
15.3787
14.2228
13.1792
12.2255
11.341
10.5084
9.71388
8.94672
8.19899
7.46485
6.74008
6.02171
5.30766
4.59647
3.88716
3.17909
2.47181
1.76505
1.05865
0.352465
39.4814
38.875
38.2545
37.6076
36.9267
36.2036
35.4264
34.5769
33.6298
32.5532
31.3148
29.8944
28.3044
26.598
24.8275
23.0406
21.2819
19.5914
18.0073
16.5687
15.2841
14.139
13.1091
12.1694
11.2976
10.4759
9.6901
8.9298
8.18725
7.45689
6.73483
6.01835
5.30557
4.59523
3.88648
3.17874
2.47167
1.76504
1.05872
0.352612
39.5475
38.9277
38.2982
37.646
36.9632
36.2412
35.4676
34.6236
33.6823
32.6102
31.372
29.9455
28.3428
26.6201
24.8313
23.026
21.2511
19.5479
17.9556
16.5143
15.2324
14.0933
13.0709
12.1387
11.2739
10.4581
9.67714
8.92058
8.18084
7.45255
6.73196
6.0165
5.30442
4.59454
3.88609
3.17855
2.47159
1.76503
1.05876
0.352694
39.5476
38.9278
38.2983
37.6461
36.9633
36.2413
35.4677
34.6237
33.6824
32.6102
31.3721
29.9456
28.3429
26.6202
24.8314
23.0261
21.2512
19.548
17.9557
16.5144
15.2324
14.0933
13.0709
12.1387
11.2739
10.4581
9.67713
8.92057
8.18083
7.45253
6.73195
6.01649
5.30441
4.59454
3.88608
3.17854
2.47159
1.76503
1.05876
0.352694
39.4818
38.8754
38.2549
37.6079
36.927
36.2039
35.4267
34.5773
33.6301
32.5536
31.3151
29.8947
28.3046
26.5983
24.8277
23.0408
21.2821
19.5917
18.0076
16.5689
15.2843
14.1392
13.1092
12.1694
11.2976
10.4758
9.69007
8.92977
8.18721
7.45686
6.73481
6.01833
5.30555
4.59522
3.88646
3.17874
2.47166
1.76504
1.05872
0.352612
39.3559
38.7758
38.173
37.5365
36.8596
36.1349
35.3514
34.4923
33.5347
32.4505
31.212
29.8032
28.2368
26.5603
24.8222
23.0671
21.3369
19.6695
18.1013
16.6679
15.3788
14.2229
13.1793
12.2255
11.341
10.5084
9.71381
8.94665
8.19893
7.46479
6.74004
6.02168
5.30763
4.59644
3.88715
3.17908
2.4718
1.76504
1.05865
0.352465
39.1819
38.6396
38.0624
37.4414
36.771
36.0452
35.2543
34.3837
33.4135
32.3203
31.0824
29.6893
28.1537
26.5149
24.8164
23.0999
21.4046
19.7662
18.219
16.793
15.4989
14.3296
13.269
12.2976
11.3968
10.5503
9.74436
8.96835
8.21396
7.47494
6.7467
6.02592
5.31023
4.59796
3.88798
3.17948
2.47194
1.76504
1.05855
0.352283
38.9762
38.4814
37.9365
37.3352
36.6742
35.9488
35.1514
34.2696
33.2872
32.1859
30.9498
29.5735
28.0693
26.4692
24.8113
23.1339
21.474
19.8655
18.3396
16.9219
15.6234
14.4411
13.3631
12.3735
11.4557
10.5944
9.7765
8.99111
8.22964
7.48545
6.75353
6.03021
5.31281
4.59943
3.88873
3.17981
2.47202
1.76498
1.05842
0.352102
38.7592
38.3188
37.8108
37.2326
36.5833
35.8607
35.0589
34.1684
33.1762
32.0686
30.8349
29.4735
27.9963
26.4297
24.8072
23.164
21.535
19.9523
18.4447
17.0344
15.7326
14.5394
13.4464
12.4406
11.5076
10.6332
9.80456
9.01079
8.24302
7.49426
6.75913
6.03361
5.31475
4.60044
3.88918
3.17992
2.47197
1.76485
1.05827
0.351955
38.5541
38.1711
37.7017
37.1482
36.5126
35.795
34.9919
34.0959
33.0971
31.9853
30.7536
29.4028
27.9446
26.4021
24.805
23.1864
21.5795
20.0151
18.52
17.1147
15.8106
14.6094
13.5053
12.4877
11.5436
10.6596
9.82314
9.02339
8.25122
7.49934
6.76208
6.03516
5.31543
4.60059
3.88905
3.17966
2.47168
1.76459
1.05808
0.351862
38.3858
38.058
37.626
37.0964
36.4749
35.7641
34.9627
34.065
33.063
31.9488
30.7176
29.3717
27.9226
26.3915
24.8066
23.1994
21.6024
20.0459
18.5559
17.152
15.8456
14.6395
13.5293
12.5055
11.5558
10.6673
9.82751
9.02539
8.25167
7.49886
6.76112
6.03401
5.31427
4.59953
3.88812
3.17888
2.47106
1.76414
1.05781
0.35182
38.2783
37.9989
37.5995
37.0904
36.4816
35.7785
34.9814
34.0859
33.0844
31.9695
30.7369
29.3892
27.9379
26.4039
24.8151
23.2033
21.6015
20.0403
18.5461
17.1385
15.8292
14.6212
13.5103
12.4867
11.5382
10.6515
9.81382
9.01389
8.24226
7.49134
6.75522
6.02947
5.31083
4.59695
3.88621
3.17748
2.47004
1.76342
1.05738
0.351773
38.2455
38.0126
37.6387
37.1433
36.543
35.8469
35.0565
34.1673
33.1706
32.0572
30.8215
29.465
27.9993
26.4461
24.8352
23.2002
21.576
19.9952
18.4856
17.0681
15.7545
14.5474
13.4413
12.4254
11.4858
10.6082
9.77902
8.98664
8.22139
7.47566
6.74365
6.02106
5.3048
4.59269
3.88323
3.1754
2.46858
1.76237
1.05664
0.351509
38.4128
38.1392
37.7375
37.225
36.6163
35.9187
35.1321
34.2496
33.2599
32.1506
30.9129
29.5464
28.0629
26.4861
24.8483
23.186
21.5365
19.9344
18.4094
16.9836
15.6691
14.4673
13.3707
12.3663
11.4385
10.5717
9.75188
8.96702
8.20758
7.4662
6.73733
6.01696
5.30223
4.59113
3.88232
3.1749
2.46829
1.76218
1.05647
0.351349
38.4471
38.1172
37.6847
37.1549
36.5346
35.8268
35.0299
34.1375
33.14
32.0273
30.7932
29.4388
27.9757
26.4262
24.8201
23.1909
21.5732
19.9991
18.4958
17.0839
15.775
14.5713
13.4671
12.4514
11.5107
10.631
9.79909
9.00374
8.23556
7.48711
6.75271
6.0281
5.31018
4.59674
3.88624
3.17763
2.47022
1.76357
1.05745
0.351736
38.553
38.17
37.7006
37.1471
36.5114
35.7937
34.9904
34.0943
33.0953
31.9834
30.7517
29.401
27.943
26.4007
24.804
23.1858
21.5791
20.015
18.5202
17.1151
15.811
14.6098
13.5058
12.4881
11.544
10.6599
9.82341
9.02362
8.2514
7.49948
6.76219
6.03525
5.31549
4.60065
3.88909
3.17969
2.4717