# vtk DataFile Version 2.0
I need something to put here
ASCII

DATASET STRUCTURED_GRID
DIMENSIONS 41 21 21
POINTS 18081 float
0.000000 0.000000 0.000000
0.100000 0.000000 0.000000
0.200000 0.000000 0.000000
0.300000 0.000000 0.000000
0.400000 0.000000 0.000000
0.500000 0.000000 0.000000
0.600000 0.000000 0.000000
0.700000 0.000000 0.000000
0.800000 0.000000 0.000000
0.900000 0.000000 0.000000
1.000000 0.000000 0.000000
1.100000 0.000000 0.000000
1.200000 0.000000 0.000000
1.300000 0.000000 0.000000
1.400000 0.000000 0.000000
1.500000 0.000000 0.000000
1.600000 0.000000 0.000000
1.700000 0.000000 0.000000
1.800000 0.000000 0.000000
1.900000 0.000000 0.000000
2.000000 0.000000 0.000000
2.100000 0.000000 0.000000
2.200000 0.000000 0.000000
2.300000 0.000000 0.000000
2.400000 0.000000 0.000000
2.500000 0.000000 0.000000
2.600000 0.000000 0.000000
2.700000 0.000000 0.000000
2.800000 0.000000 0.000000
2.900000 0.000000 0.000000
3.000000 0.000000 0.000000
3.100000 0.000000 0.000000
3.200000 0.000000 0.000000
3.300000 0.000000 0.000000
3.400000 0.000000 0.000000
3.500000 0.000000 0.000000
3.600000 0.000000 0.000000
3.700000 0.000000 0.000000
3.800000 0.000000 0.000000
3.900000 0.000000 0.000000
4.000000 0.000000 0.000000
0.000000 0.100000 0.000000
0.100000 0.100000 0.000000
0.200000 0.100000 0.000000
0.300000 0.100000 0.000000
0.400000 0.100000 0.000000
0.500000 0.100000 0.000000
0.600000 0.100000 0.000000
0.700000 0.100000 0.000000
0.800000 0.100000 0.000000
0.900000 0.100000 0.000000
1.000000 0.100000 0.000000
1.100000 0.100000 0.000000
1.200000 0.100000 0.000000
1.300000 0.100000 0.000000
1.400000 0.100000 0.000000
1.500000 0.100000 0.000000
1.600000 0.100000 0.000000
1.700000 0.100000 0.000000
1.800000 0.100000 0.000000
1.900000 0.100000 0.000000
2.000000 0.100000 0.000000
2.100000 0.100000 0.000000
2.200000 0.100000 0.000000
2.300000 0.100000 0.000000
2.400000 0.100000 0.000000
2.500000 0.100000 0.000000
2.600000 0.100000 0.000000
2.700000 0.100000 0.000000
2.800000 0.100000 0.000000
2.900000 0.100000 0.000000
3.000000 0.100000 0.000000
3.100000 0.100000 0.000000
3.200000 0.100000 0.000000
3.300000 0.100000 0.000000
3.400000 0.100000 0.000000
3.500000 0.100000 0.000000
3.600000 0.100000 0.000000
3.700000 0.100000 0.000000
3.800000 0.100000 0.000000
3.900000 0.100000 0.000000
4.000000 0.100000 0.000000
0.000000 0.200000 0.000000
0.100000 0.200000 0.000000
0.200000 0.200000 0.000000
0.300000 0.200000 0.000000
0.400000 0.200000 0.000000
0.500000 0.200000 0.000000
0.600000 0.200000 0.000000
0.700000 0.200000 0.000000
0.800000 0.200000 0.000000
0.900000 0.200000 0.000000
1.000000 0.200000 0.000000
1.100000 0.200000 0.000000
1.200000 0.200000 0.000000
1.300000 0.200000 0.000000
1.400000 0.200000 0.000000
1.500000 0.200000 0.000000
1.600000 0.200000 0.000000
1.700000 0.200000 0.000000
1.800000 0.200000 0.000000
1.900000 0.200000 0.000000
2.000000 0.200000 0.000000
2.100000 0.200000 0.000000
2.200000 0.200000 0.000000
2.300000 0.200000 0.000000
2.400000 0.200000 0.000000
2.500000 0.200000 0.000000
2.600000 0.200000 0.000000
2.700000 0.200000 0.000000
2.800000 0.200000 0.000000
2.900000 0.200000 0.000000
3.000000 0.200000 0.000000
3.100000 0.200000 0.000000
3.200000 0.200000 0.000000
3.300000 0.200000 0.000000
3.400000 0.200000 0.000000
3.500000 0.200000 0.000000
3.600000 0.200000 0.000000
3.700000 0.200000 0.000000
3.800000 0.200000 0.000000
3.900000 0.200000 0.000000
4.000000 0.200000 0.000000
0.000000 0.300000 0.000000
0.100000 0.300000 0.000000
0.200000 0.300000 0.000000
0.300000 0.300000 0.000000
0.400000 0.300000 0.000000
0.500000 0.300000 0.000000
0.600000 0.300000 0.000000
0.700000 0.300000 0.000000
0.800000 0.300000 0.000000
0.900000 0.300000 0.000000
1.000000 0.300000 0.000000
1.100000 0.300000 0.000000
1.200000 0.300000 0.000000
1.300000 0.300000 0.000000
1.400000 0.300000 0.000000
1.500000 0.300000 0.000000
1.600000 0.300000 0.000000
1.700000 0.300000 0.000000
1.800000 0.300000 0.000000
1.900000 0.300000 0.000000
2.000000 0.300000 0.000000
2.100000 0.300000 0.000000
2.200000 0.300000 0.000000
2.300000 0.300000 0.000000
2.400000 0.300000 0.000000
2.500000 0.300000 0.000000
2.600000 0.300000 0.000000
2.700000 0.300000 0.000000
2.800000 0.300000 0.000000
2.900000 0.300000 0.000000
3.000000 0.300000 0.000000
3.100000 0.300000 0.000000
3.200000 0.300000 0.000000
3.300000 0.300000 0.000000
3.400000 0.300000 0.000000
3.500000 0.300000 0.000000
3.600000 0.300000 0.000000
3.700000 0.300000 0.000000
3.800000 0.300000 0.000000
3.900000 0.300000 0.000000
4.000000 0.300000 0.000000
0.000000 0.400000 0.000000
0.100000 0.400000 0.000000
0.200000 0.400000 0.000000
0.300000 0.400000 0.000000
0.400000 0.400000 0.000000
0.500000 0.400000 0.000000
0.600000 0.400000 0.000000
0.700000 0.400000 0.000000
0.800000 0.400000 0.000000
0.900000 0.400000 0.000000
1.000000 0.400000 0.000000
1.100000 0.400000 0.000000
1.200000 0.400000 0.000000
1.300000 0.400000 0.000000
1.400000 0.400000 0.000000
1.500000 0.400000 0.000000
1.600000 0.400000 0.000000
1.700000 0.400000 0.000000
1.800000 0.400000 0.000000
1.900000 0.400000 0.000000
2.000000 0.400000 0.000000
2.100000 0.400000 0.000000
2.200000 0.400000 0.000000
2.300000 0.400000 0.000000
2.400000 0.400000 0.000000
2.500000 0.400000 0.000000
2.600000 0.400000 0.000000
2.700000 0.400000 0.000000
2.800000 0.400000 0.000000
2.900000 0.400000 0.000000
3.000000 0.400000 0.000000
3.100000 0.400000 0.000000
3.200000 0.400000 0.000000
3.300000 0.400000 0.000000
3.400000 0.400000 0.000000
3.500000 0.400000 0.000000
3.600000 0.400000 0.000000
3.700000 0.400000 0.000000
3.800000 0.400000 0.000000
3.900000 0.400000 0.000000
4.000000 0.400000 0.000000
0.000000 0.500000 0.000000
0.100000 0.500000 0.000000
0.200000 0.500000 0.000000
0.300000 0.500000 0.000000
0.400000 0.500000 0.000000
0.500000 0.500000 0.000000
0.600000 0.500000 0.000000
0.700000 0.500000 0.000000
0.800000 0.500000 0.000000
0.900000 0.500000 0.000000
1.000000 0.500000 0.000000
1.100000 0.500000 0.000000
1.200000 0.500000 0.000000
1.300000 0.500000 0.000000
1.400000 0.500000 0.000000
1.500000 0.500000 0.000000
1.600000 0.500000 0.000000
1.700000 0.500000 0.000000
1.800000 0.500000 0.000000
1.900000 0.500000 0.000000
2.000000 0.500000 0.000000
2.100000 0.500000 0.000000
2.200000 0.500000 0.000000
2.300000 0.500000 0.000000
2.400000 0.500000 0.000000
2.500000 0.500000 0.000000
2.600000 0.500000 0.000000
2.700000 0.500000 0.000000
2.800000 0.500000 0.000000
2.900000 0.500000 0.000000
3.000000 0.500000 0.000000
3.100000 0.500000 0.000000
3.200000 0.500000 0.000000
3.300000 0.500000 0.000000
3.400000 0.500000 0.000000
3.500000 0.500000 0.000000
3.600000 0.500000 0.000000
3.700000 0.500000 0.000000
3.800000 0.500000 0.000000
3.900000 0.500000 0.000000
4.000000 0.500000 0.000000
0.000000 0.600000 0.000000
0.100000 0.600000 0.000000
0.200000 0.600000 0.000000
0.300000 0.600000 0.000000
0.400000 0.600000 0.000000
0.500000 0.600000 0.000000
0.600000 0.600000 0.000000
0.700000 0.600000 0.000000
0.800000 0.600000 0.000000
0.900000 0.600000 0.000000
1.000000 0.600000 0.000000
1.100000 0.600000 0.000000
1.200000 0.600000 0.000000
1.300000 0.600000 0.000000
1.400000 0.600000 0.000000
1.500000 0.600000 0.000000
1.600000 0.600000 0.000000
1.700000 0.600000 0.000000
1.800000 0.600000 0.000000
1.900000 0.600000 0.000000
2.000000 0.600000 0.000000
2.100000 0.600000 0.000000
2.200000 0.600000 0.000000
2.300000 0.600000 0.000000
2.400000 0.600000 0.000000
2.500000 0.600000 0.000000
2.600000 0.600000 0.000000
2.700000 0.600000 0.000000
2.800000 0.600000 0.000000
2.900000 0.600000 0.000000
3.000000 0.600000 0.000000
3.100000 0.600000 0.000000
3.200000 0.600000 0.000000
3.300000 0.600000 0.000000
3.400000 0.600000 0.000000
3.500000 0.600000 0.000000
3.600000 0.600000 0.000000
3.700000 0.600000 0.000000
3.800000 0.600000 0.000000
3.900000 0.600000 0.000000
4.000000 0.600000 0.000000
0.000000 0.700000 0.000000
0.100000 0.700000 0.000000
0.200000 0.700000 0.000000
0.300000 0.700000 0.000000
0.400000 0.700000 0.000000
0.500000 0.700000 0.000000
0.600000 0.700000 0.000000
0.700000 0.700000 0.000000
0.800000 0.700000 0.000000
0.900000 0.700000 0.000000
1.000000 0.700000 0.000000
1.100000 0.700000 0.000000
1.200000 0.700000 0.000000
1.300000 0.700000 0.000000
1.400000 0.700000 0.000000
1.500000 0.700000 0.000000
1.600000 0.700000 0.000000
1.700000 0.700000 0.000000
1.800000 0.700000 0.000000
1.900000 0.700000 0.000000
2.000000 0.700000 0.000000
2.100000 0.700000 0.000000
2.200000 0.700000 0.000000
2.300000 0.700000 0.000000
2.400000 0.700000 0.000000
2.500000 0.700000 0.000000
2.600000 0.700000 0.000000
2.700000 0.700000 0.000000
2.800000 0.700000 0.000000
2.900000 0.700000 0.000000
3.000000 0.700000 0.000000
3.100000 0.700000 0.000000
3.200000 0.700000 0.000000
3.300000 0.700000 0.000000
3.400000 0.700000 0.000000
3.500000 0.700000 0.000000
3.600000 0.700000 0.000000
3.700000 0.700000 0.000000
3.800000 0.700000 0.000000
3.900000 0.700000 0.000000
4.000000 0.700000 0.000000
0.000000 0.800000 0.000000
0.100000 0.800000 0.000000
0.200000 0.800000 0.000000
0.300000 0.800000 0.000000
0.400000 0.800000 0.000000
0.500000 0.800000 0.000000
0.600000 0.800000 0.000000
0.700000 0.800000 0.000000
0.800000 0.800000 0.000000
0.900000 0.800000 0.000000
1.000000 0.800000 0.000000
1.100000 0.800000 0.000000
1.200000 0.800000 0.000000
1.300000 0.800000 0.000000
1.400000 0.800000 0.000000
1.500000 0.800000 0.000000
1.600000 0.800000 0.000000
1.700000 0.800000 0.000000
1.800000 0.800000 0.000000
1.900000 0.800000 0.000000
2.000000 0.800000 0.000000
2.100000 0.800000 0.000000
2.200000 0.800000 0.000000
2.300000 0.800000 0.000000
2.400000 0.800000 0.000000
2.500000 0.800000 0.000000
2.600000 0.800000 0.000000
2.700000 0.800000 0.000000
2.800000 0.800000 0.000000
2.900000 0.800000 0.000000
3.000000 0.800000 0.000000
3.100000 0.800000 0.000000
3.200000 0.800000 0.000000
3.300000 0.800000 0.000000
3.400000 0.800000 0.000000
3.500000 0.800000 0.000000
3.600000 0.800000 0.000000
[...]
CELL_DATA 16000
SCALARS pressure float 1
LOOKUP_TABLE default
34.7934
34.6167
34.2796
33.8155
33.2499
32.5989
31.87
31.0643
30.1779
29.2047
28.1391
26.9791
25.7291
24.4022
23.0203
21.6121
20.2093
18.8421
17.5348
16.3034
15.155
14.0891
13.0994
12.176
11.3079
10.484
9.69422
8.93005
8.18459
7.45246
6.72959
6.01301
5.3006
4.59087
3.88283
3.17581
2.46939
1.76335
1.05762
0.35226
34.849
34.6468
34.2958
33.8241
33.2543
32.6011
31.8714
31.0656
30.1797
29.2072
28.1423
26.9825
25.7323
24.4045
23.0211
21.6112
20.207
18.8388
17.5311
16.2999
15.1521
14.087
13.0981
12.1755
11.308
10.4844
9.69484
8.93076
8.1853
7.45311
6.73016
6.01349
5.30098
4.59118
3.88307
3.17599
2.46952
1.76344
1.05765
0.35221
34.9693
34.7305
34.3554
33.8684
33.2898
32.6326
31.9024
31.0986
30.2159
29.2466
28.1832
27.0219
25.7659
24.4281
23.0315
21.6069
20.1889
18.8101
17.4958
16.2623
15.1158
14.0544
13.0705
12.1532
11.2907
10.4715
9.68551
8.92422
8.18086
7.45018
6.72829
6.01235
5.30033
4.59083
3.88291
3.17593
2.46951
1.76342
1.05759
0.352107
35.1326
34.8517
34.4468
33.9402
33.3505
32.6889
31.9595
31.1603
30.284
29.3206
28.2599
27.0953
25.8282
24.4714
23.0496
21.5974
20.1538
18.7552
17.4289
16.1912
15.0471
13.9927
13.018
12.1107
11.2576
10.4466
9.66729
8.91128
8.17189
7.44414
6.72432
6.00982
5.29877
4.58991
3.88239
3.17566
2.46937
1.76334
1.05751
0.352016
35.3178
34.9949
34.5586
34.0313
33.4301
32.7649
32.0385
31.2468
30.3803
29.4258
28.3691
27.1999
25.9168
24.5323
23.0739
21.5816
20.1013
18.6744
17.3315
16.0886
14.9487
13.9047
12.9437
12.0506
11.2109
10.4114
9.64164
8.89302
8.15922
7.43555
6.71865
6.00616
5.29649
4.58854
3.8816
3.17523
2.46914
1.76321
1.05742
0.351959
35.5057
35.1446
34.6788
34.1317
33.5202
32.8532
32.1319
31.3505
30.4969
29.554
28.503
27.3285
26.0258
24.6067
23.1024
21.56
20.0338
18.5725
17.2099
15.9617
14.828
13.7976
12.8537
11.9783
11.1549
10.3695
9.61108
8.87131
8.14416
7.42534
6.71189
6.0018
5.29375
4.58688
3.88064
3.17469
2.46886
1.76307
1.05735
0.351937
35.6791
35.2859
34.7946
34.2307
33.611
32.9438
32.2293
31.4601
30.6213
29.6918
28.6478
27.4685
26.1449
24.6879
23.1327
21.5346
19.958
18.4594
17.0762
15.8236
14.6977
13.6828
12.758
11.9019
11.0961
10.3256
9.5792
8.84872
8.12851
7.41474
6.70488
5.99728
5.29091
4.58515
3.87963
3.17413
2.46857
1.76293
1.0573
0.351944
35.8232
35.4052
34.8941
34.3171
33.6915
33.0254
32.3183
31.5613
30.7372
29.8213
28.7849
27.6019
26.2588
24.7656
23.1612
21.5091
19.884
18.3502
16.9484
15.6925
14.5751
13.5757
12.6692
11.8314
11.0421
10.2855
9.55014
8.82819
8.11433
7.40516
6.69854
5.99318
5.28834
4.58359
3.87871
3.17363
2.46832
1.76282
1.05728
0.351967
35.9262
35.4914
34.9668
34.381
33.7519
33.0873
32.3864
31.6393
30.8272
29.9226
28.8929
27.7076
26.3496
24.8276
23.1837
21.4882
19.8243
18.2628
16.8468
15.5892
14.4792
13.4924
12.6005
11.7772
11.0007
10.2548
9.52802
8.81259
8.10357
7.3979
6.69375
5.9901
5.2864
4.58241
3.87803
3.17325
2.46813
1.76274
1.05726
0.351992
35.9799
35.5366
35.0051
34.415
33.7842
33.1207
32.4233
31.6819
30.8765
29.9783
28.9526
27.7663
26.4002
24.8623
23.1963
21.4764
19.7908
18.214
16.7904
15.5321
14.4264
13.4468
12.5631
11.7477
10.9783
10.2383
9.51608
8.80419
8.09779
7.394
6.69118
5.98845
5.28537
4.58178
3.87766
3.17305
2.46803
1.7627
1.05726
0.352007
35.9799
35.5367
35.0052
34.415
33.7842
33.1207
32.4234
31.6819
30.8766
29.9784
28.9527
27.7663
26.4002
24.8623
23.1963
21.4764
19.7909
18.2141
16.7905
15.5323
14.4265
13.4469
12.5632
11.7478
10.9784
10.2383
9.51616
8.80426
8.09784
7.39404
6.69122
5.98847
5.28539
4.5818
3.87767
3.17306
2.46803
1.76271
1.05726
0.352005
35.9263
35.4915
34.9669
34.3811
33.752
33.0874
32.3865
31.6395
30.8273
29.9227
28.893
27.7077
26.3496
24.8276
23.1838
21.4883
19.8245
18.263
16.8471
15.5896
14.4795
13.4928
12.6009
11.7775
11.001
10.2551
9.52824
8.81277
8.10372
7.39802
6.69384
5.99017
5.28646
4.58245
3.87806
3.17327
2.46814
1.76275
1.05726
0.351988
35.8234
35.4054
34.8943
34.3173
33.6918
33.0257
32.3185
31.5615
30.7374
29.8215
28.7851
27.602
26.2589
24.7656
23.1612
21.5092
19.8843
18.3506
16.9488
15.6931
14.5757
13.5763
12.6698
11.832
11.0426
10.2859
9.5505
8.82848
8.11457
7.40535
6.6987
5.99331
5.28843
4.58366
3.87876
3.17366
2.46834
1.76283
1.05728
0.351961
35.6794
35.2862
34.7949
34.231
33.6113
32.944
32.2296
31.4604
30.6216
29.6922
28.6481
27.4687
26.145
24.688
23.1328
21.5348
19.9584
18.46
17.0769
15.8243
14.6985
13.6836
12.7587
11.9026
11.0967
10.3262
9.57966
8.84911
8.12884
7.41501
6.70508
5.99744
5.29103
4.58524
3.87969
3.17418
2.4686
1.76295
1.05731
0.351937
35.5061
35.1449
34.6791
34.1321
33.5206
32.8535
32.1322
31.3509
30.4973
29.5544
28.5033
27.3288
26.026
24.6069
23.1027
21.5603
20.0343
18.5732
17.2106
15.9626
14.8289
13.7985
12.8546
11.9791
11.1557
10.3702
9.61164
8.87178
8.14454
7.42565
6.71213
6.00199
5.2939
4.58699
3.88071
3.17474
2.46889
1.76308
1.05735
0.351928
35.3182
34.9952
34.559
34.0316
33.4304
32.7653
32.0389
31.2472
30.3808
29.4262
28.3695
27.2002
25.9171
24.5326
23.0742
21.5821
20.1019
18.6752
17.3324
16.0896
14.9498
13.9057
12.9446
12.0515
11.2117
10.4122
9.64225
8.89353
8.15964
7.43589
6.71891
6.00637
5.29665
4.58865
3.88168
3.17528
2.46917
1.76322
1.05742
0.351949
35.1329
34.852
34.4471
33.9406
33.3509
32.6893
31.9599
31.1607
30.2845
29.3211
28.2603
27.0957
25.8286
24.4718
23.05
21.5979
20.1545
18.756
17.4298
16.1922
15.0482
13.9937
13.019
12.1116
11.2584
10.4473
9.66793
8.91181
8.17233
7.44449
6.7246
6.01003
5.29893
4.59003
3.88247
3.17571
2.4694
1.76335
1.05751
0.352006
34.9696
34.7309
34.3558
33.8688
33.2902
32.633
31.9028
31.099
30.2163
29.247
28.1836
27.0223
25.7663
24.4286
23.032
21.6075
20.1897
18.8109
17.4968
16.2634
15.1169
14.0555
13.0715
12.1541
11.2915
10.4722
9.68615
8.92476
8.18129
7.45053
6.72857
6.01256
5.30049
4.59094
3.88298
3.17598
2.46953
1.76343
1.05759
0.352097
34.8494
34.6472
34.2962
33.8245
33.2547
32.6016
31.8719
31.0661
30.1802
29.2077
28.1427
26.983
25.7327
24.4049
23.0217
21.6118
20.2077
18.8396
17.532
16.3009
15.1532
14.0881
13.0991
12.1764
11.3088
10.4851
9.69546
8.93128
8.18572
7.45345
6.73042
6.01368
5.30113
4.59128
3.88314
3.17603
2.46954
1.76345
1.05765
0.352201
34.7938
34.6171
34.28
33.8159
33.2503
32.5993
31.8704
31.0647
30.1783
29.2052
28.1396
26.9795
25.7295
24.4027
23.0208
21.6127
20.2101
18.843
17.5358
16.3044
15.1561
14.0901
13.1003
12.1769
11.3087
10.4847
9.69481
8.93055
8.185
7.45278
6.72984
6.0132
5.30073
4.59097
3.88289
3.17584
2.46941
1.76335
1.05761
0.352252
34.849
34.6468
34.2958
33.8241
33.2543
32.6011
31.8714
31.0656
30.1797
29.2072
28.1423
26.9825
25.7323
24.4045
23.0211
21.6112
20.207
18.8388
17.5311
16.2999
15.1521
14.0871
13.0982
12.1755
11.308
10.4844
9.69485
8.93076
8.1853
7.45311
6.73016
6.01349
5.30099
4.59118
3.88307
3.17599
2.46952
1.76344
1.05765
0.35221
34.8924
34.652
34.2821
33.8015
33.2274
32.5714
31.8392
31.031
30.143
29.1693
28.1048
26.9479
25.7031
24.3835
23.0104
21.6116
20.2181
18.8591
17.5582
16.3309
15.1844
14.1184
13.1269
12.2008
11.3293
10.5019
9.7088
8.94163
8.19359
7.45932
6.73472
6.01679
5.30335
4.59284
3.88423
3.17679
2.47009
1.76384
1.05792
0.352288
35.0086
34.7222
34.3235
33.8255
33.2412
32.5797
31.845
31.0363
30.149
29.1767
28.1133
26.9566
25.7107
24.3884
23.0114
21.6083
20.211
18.8496
17.5479
16.3212
15.1763
14.1124
13.1231
12.1988
11.3288
10.5024
9.70993
8.94307
8.19511
7.46076
6.73602
6.01791
5.30427
4.59359
3.88481
3.17725
2.47043
1.76408
1.05805
0.352269
35.1749
34.8368
34.4039
33.8838
33.2864
32.6185
31.8822
31.0752
30.1914
29.2226
28.1608
27.002
25.7488
24.4141
23.0207
21.5998
20.1864
18.8128
17.504
16.2756
15.1331
14.0743
13.0914
12.1737
11.3099
10.4886
9.7003
8.9366
8.19094
7.45821
6.73456
6.01716
5.30396
4.59354
3.8849
3.17739
2.47057
1.76419
1.05811
0.352251
35.3671
34.9772
34.5087
33.9653
33.3542
32.6802
31.9438
31.1409
30.2633
29.3002
28.2408
27.0779
25.8124
24.4568
23.0361
21.5856
20.1452
18.7514
17.431
16.1993
15.0604
14.0096
13.037
12.1301
11.2762
10.4635
9.68218
8.92391
8.18231
7.45253
6.73095
6.01495
5.30268
4.59285
3.88458
3.17728
2.47057
1.76423
1.05814
0.352261
35.5632
35.1258
34.6238
34.0583
33.4346
32.7559
32.0213
31.2247
30.3557
29.4004
28.3442
27.1762
25.8947
24.5118
23.0553
21.5661
20.0908
18.6709
17.3358
16.1005
14.9666
13.9264
12.967
12.0739
11.2327
10.431
9.65851
8.90717
8.17079
7.44481
6.72592
6.01178
5.30076
4.59175
3.88399
3.177
2.47046
1.76421
1.05816
0.352302
35.7444
35.2667
34.7358
34.1512
33.517
32.8353
32.104
31.3153
30.4564
29.5103
28.4583
27.2853
25.9863
24.5729
23.0762
21.5434
20.0289
18.5804
17.2297
15.9911
14.8634
13.8354
12.8909
12.0129
11.1855
10.3957
9.63284
8.88897
8.15821
7.43632
6.72034
6.00822
5.29857
4.59045
3.88327
3.17663
2.4703
1.76417
1.05818
0.352364
35.895
35.3859
34.8323
34.2327
33.5906
32.9076
32.1802
31.3997
30.5511
29.6143
28.5671
27.3901
26.0748
24.6322
23.0962
21.5206
19.9682
18.4925
17.1277
15.8868
14.7658
13.7498
12.8196
11.956
11.1417
10.3629
9.60903
8.87209
8.14653
7.42843
6.71514
6.00489
5.2965
4.58921
3.88257
3.17626
2.47014
1.76412
1.0582
0.352432
36.0027
35.4721
34.9029
34.2932
33.646
32.9625
32.2388
31.465
30.6249
29.696
28.6531
27.4735
26.1457
24.6798
23.1121
21.502
19.9191
18.422
17.0465
15.8045
14.6892
13.6831
12.7643
11.912
11.1079
10.3378
9.59074
8.85914
8.13757
7.42238
6.71115
6.00232
5.2949
4.58826
3.88202
3.17598
2.47001
1.76408
1.05822
0.352489
36.0587
35.5173
34.9402
34.3253
33.6756
32.9921
32.2706
31.5007
30.6653
29.741
28.7008
27.5199
26.1854
24.7066
23.1211
21.4914
19.8915
18.3826
17.0014
15.759
14.6472
13.6465
12.7342
11.8881
11.0896
10.3241
9.58086
8.85215
8.13274
7.41911
6.709
6.00094
5.29404
4.58774
3.88173
3.17582
2.46994
1.76406
1.05823
0.352521
36.0587
35.5173
34.9403
34.3253
33.6757
32.9922
32.2706
31.5007
30.6654
29.741
28.7008
27.5199
26.1854
24.7066
23.1211
21.4914
19.8915
18.3827
17.0015
15.7591
14.6473
13.6467
12.7343
11.8882
11.0897
10.3242
9.58093
8.85221
8.13279
7.41915
6.70903
6.00097
5.29406
4.58776
3.88174
3.17583
2.46994
1.76406
1.05823
0.35252
36.0028
35.4722
34.9031
34.2933
33.6461
32.9626
32.2389
31.4652
30.625
29.6961
28.6532
27.4735
26.1457
24.6798
23.1122
21.5021
19.9193
18.4222
17.0468
15.8048
14.6896
13.6834
12.7647
11.9123
11.1082
10.338
9.59095
8.85932
8.13771
7.42249
6.71124
6.0024
5.29495
4.5883
3.88205
3.176
2.47002
1.76409
1.05822
0.352487
35.8952
35.3861
34.8325
34.2329
33.5908
32.9078
32.1805
31.3999
30.5513
29.6146
28.5673
27.3902
26.0749
24.6323
23.0963
21.5208
19.9685
18.4929
17.1281
15.8873
14.7663
13.7503
12.8202
11.9564
11.1421
10.3633
9.60935
8.87237
8.14676
7.42862
6.71529
6.005
5.29659
4.58928
3.88262
3.1763
2.47016
1.76413
1.05821
0.352429
35.7447
35.2669
34.7361
34.1514
33.5172
32.8356
32.1043
31.3156
30.4567
29.5106
28.4585
27.2855
25.9865
24.5731
23.0764
21.5436
20.0293
18.5809
17.2303
15.9918
14.8641
13.8361
12.8916
12.0135
11.1861
10.3962
9.63327
8.88934
8.15851
7.43657
6.72054
6.00838
5.29868
4.59054
3.88333
3.17667
2.47033
1.76418
1.05819
0.35236
35.5635
35.1261
34.6241
34.0586
33.4349
32.7562
32.0216
31.2251
30.3561
29.4007
28.3445
27.1765
25.8949
24.512
23.0556
21.5665
20.0913
18.6715
17.3365
16.1013
14.9674
13.9272
12.9678
12.0746
11.2333
10.4316
9.65902
8.9076
8.17115
7.4451
6.72615
6.01196
5.3009
4.59185
3.88406
3.17705
2.4705
1.76423
1.05817
0.352297
35.3674
34.9775
34.509
33.9656
33.3545
32.6806
31.9442
31.1413
30.2638
29.3007
28.2412
27.0783
25.8127
24.4571
23.0365
21.5861
20.1458
18.7521
17.4318
16.2002
15.0613
14.0105
13.0379
12.1309
11.2769
10.4642
9.68275
8.92439
8.18271
7.45285
6.7312
6.01515
5.30283
4.59297
3.88466
3.17733
2.4706
1.76425
1.05815
0.352255
35.1753
34.8372
34.4042
33.8842
33.2868
32.6189
31.8826
31.0756
30.1919
29.223
28.1613
27.0024
25.7492
24.4145
23.0212
21.6004
20.187
18.8135
17.5049
16.2765
15.1341
14.0752
13.0923
12.1746
11.3106
10.4893
9.7009
8.9371
8.19136
7.45855
6.73483
6.01737
5.30412
4.59365
3.88498
3.17744
2.47061
1.76421
1.05811
0.352244
35.009
34.7226
34.3239
33.8259
33.2416
32.5801
31.8454
31.0368
30.1495
29.1771
28.1138
26.957
25.7111
24.3888
23.0118
21.6088
20.2117
18.8504
17.5488
16.3222
15.1773
14.1134
13.124
12.1997
11.3296
10.5031
9.71054
8.94358
8.19553
7.4611
6.73629
6.01811
5.30442
4.5937
3.88489
3.1773
2.47045
1.76409
1.05805
0.35226
34.8928
34.6524
34.2824
33.8019
33.2278
32.5718
31.8397
31.0315
30.1435
29.1698
28.1053
26.9483
25.7036
24.384
23.0109
21.6122
20.2188
18.8599
17.5591
16.3319
15.1854
14.1194
13.1278
12.2016
11.3301
10.5026
9.7094
8.94213
8.194
7.45964
6.73498
6.01699
5.30349
4.59294
3.8843
3.17683
2.47011
1.76385
1.05792
0.352279
34.8493
34.6472
34.2962
33.8244
33.2547
32.6016
31.8719
31.0661
30.1802
29.2077
28.1428
26.983
25.7327
24.4049
23.0216
21.6118
20.2077
18.8396
17.532
16.3008
15.1531
14.088
13.0991
12.1764
11.3087
10.4851
9.69542
8.93124
8.18569
7.45342
6.73039
6.01366
5.30111
4.59127
3.88313
3.17602
2.46954
1.76344
1.05764
0.3522
34.9693
34.7305
34.3554
33.8684
33.2898
32.6326
31.9024
31.0985
30.2158
29.2465
28.1831
27.0218
25.7658
24.4281
23.0315
21.6069
20.1889
18.8101
17.4959
16.2624
15.1158
14.0544
13.0705
12.1532
11.2907
10.4715
9.68553
8.92424
8.18087
7.45019
6.7283
6.01235
5.30033
4.59083
3.88291
3.17593
2.46951
1.76342
1.05759
0.352107
35.0086
34.7222
34.3235
33.8255
33.2412
32.5797
31.845
31.0363
30.149
29.1766
28.1133
26.9565
25.7106
24.3883
23.0113
21.6082
20.211
18.8496
17.5479
16.3212
15.1764
14.1124
13.1231
12.1988
11.3288
10.5024
9.70994
8.94308
8.19511
7.46077
6.73602
6.01791
5.30427
4.59359
3.88482
3.17725
2.47043
1.76408
1.05805
0.352269
35.1204
34.7834
34.3519
33.8339
33.2376
32.5689
31.83
31.0189
30.1307
29.1586
28.0965
26.9418
25.6984
24.3789
23.0048
21.605
20.2115
18.8541
17.5562
16.3329
15.1905
14.1279
13.1388
12.2138
11.3425
10.5144
9.7201
8.95145
8.20185
7.46608
6.74014
6.02104
5.30662
4.59533
3.88609
3.17817
2.47109
1.76454
1.05832
0.352299
35.2869
34.8934
34.4239
33.8813
33.27
32.5932
31.851
31.0402
30.1543
29.1851
28.125
26.9697
25.7217
24.3934
23.0076
21.5951
20.1907
18.8261
17.5253
16.303
15.1642
14.1066
13.1227
12.2026
11.3352
10.5102
9.71803
8.95082
8.20211
7.46682
6.74108
6.02202
5.30754
4.59614
3.88678
3.17874
2.47153
1.76486
1.05851
0.352331
35.4836
35.0326
34.5238
33.9553
33.3284
32.644
31.9003
31.0923
30.2118
29.2482
28.191
27.0328
25.7742
24.4271
23.0164
21.5774
20.1498
18.7689
17.4603
16.2378
15.1043
14.0553
13.0811
12.1704
11.3114
10.4931
9.70633
8.94311
8.19726
7.46394
6.73952
6.0213
5.30732
4.5962
3.88698
3.17898
2.47177
1.76506
1.05865
0.352395
35.6868
35.1824
34.6364
34.0433
33.402
32.7115
31.9683
31.1657
30.2934
29.3378
28.2846
27.1227
25.8491
24.4753
23.0292
21.5524
20.0918
18.6881
17.3688
16.1461
15.0201
13.9827
13.0218
12.1239
11.2763
10.4675
9.68817
8.93064
8.18896
7.45861
6.73624
6.01938
5.30629
4.59573
3.88683
3.17901
2.47188
1.76519
1.05877
0.352496
35.8759
35.3257
34.7473
34.1329
33.4796
32.7848
32.0439
31.2487
30.3864
29.4408
28.3933
27.2277
25.9373
24.5324
23.0442
21.5223
20.0229
18.5933
17.2623
16.0405
14.9238
13.9002
12.9544
12.0711
11.2363
10.4381
9.66719
8.91606
8.1791
7.45214
6.73213
6.01688
5.30484
4.59495
3.88647
3.17889
2.47189
1.76526
1.05887
0.352618
36.0338
35.4475
34.8435
34.2123
33.5499
32.8527
32.1152
31.3278
30.4762
29.5412
28.5003
27.3325
26.0264
24.5905
23.0594
21.4912
19.9527
18.4978
17.1567
15.937
14.8304
13.8208
12.89
12.0208
11.1982
10.4101
9.64715
8.90208
8.1696
7.44585
6.72808
6.01437
5.30336
4.59413
3.88605
3.17872
2.47186
1.76531
1.05896
0.352739
36.147
35.5358
34.9142
34.2715
33.6031
32.9048
32.1705
31.3899
30.5473
29.6215
28.587
27.4185
26.1005
24.6396
23.0724
21.4649
19.8937
18.4188
17.0707
15.8538
14.7561
13.7581
12.8395
11.9814
11.1685
10.3883
9.63155
8.89118
8.16217
7.44091
6.7249
6.01238
5.30216
4.59345
3.8857
3.17857
2.47182
1.76533
1.05903
0.352837
36.2059
35.5821
34.9515
34.3031
33.6317
32.9331
32.2008
31.424
30.5866
29.6662
28.6356
27.4673
26.1431
24.6681
23.0799
21.4496
19.8595
18.3736
17.0221
15.8073
14.7149
13.7236
12.8117
11.9599
11.1523
10.3765
9.62306
8.88526
8.15813
7.43823
6.72316
6.01129
5.30151
4.59308
3.88551
3.17848
2.4718
1.76535
1.05906
0.352891
36.206
35.5821
34.9516
34.3031
33.6318
32.9331
32.2008
31.4241
30.5867
29.6663
28.6356
27.4673
26.1431
24.6681
23.0799
21.4497
19.8596
18.3737
17.0222
15.8075
14.7151
13.7238
12.8119
11.96
11.1524
10.3765
9.62313
8.88531
8.15818
7.43827
6.72319
6.01132
5.30153
4.59309
3.88552
3.17849
2.4718
1.76535
1.05906
0.35289
36.1471
35.5359
34.9143
34.2717
33.6032
32.905
32.1707
31.39
30.5474
29.6216
28.5871
27.4185
26.1005
24.6395
23.0724
21.465
19.8939
18.4191
17.071
15.8542
14.7565
13.7585
12.8398
11.9817
11.1687
10.3886
9.63174
8.89135
8.16231
7.44103
6.72499
6.01245
5.30222
4.59349
3.88573
3.17859
2.47184
1.76534
1.05903
0.352835
36.034
35.4477
34.8437
34.2125
33.5501
32.8529
32.1154
31.328
30.4764
29.5414
28.5005
27.3327
26.0265
24.5906
23.0595
21.4914
19.953
18.4982
17.1572
15.9376
14.831
13.8214
12.8905
12.0212
11.1986
10.4105
9.64747
8.90235
8.16982
7.44603
6.72823
6.01448
5.30344
4.59419
3.8861
3.17875
2.47188
1.76532
1.05897
0.352736
35.8762
35.3259
34.7476
34.1332
33.4798
32.7851
32.0442
31.249
30.3868
29.4411
28.3936
27.228
25.9375
24.5325
23.0444
21.5226
20.0233
18.5938
17.263
16.0412
14.9245
13.9009
12.9551
12.0717
11.2368
10.4386
9.6676
8.91641
8.17939
7.45238
6.73232
6.01703
5.30496
4.59504
3.88653
3.17893
2.47192
1.76528
1.05888
0.352613
35.6871
35.1827
34.6367
34.0436
33.4023
32.7118
31.9686
31.1661
30.2938
29.3382
28.285
27.123
25.8494
24.4755
23.0295
21.5528
20.0923
18.6888
17.3695
16.1469
15.0209
13.9836
13.0226
12.1246
11.2769
10.4681
9.68867
8.93106
8.18931
7.4589
6.73646
6.01956
5.30643
4.59583
3.8869
3.17906
2.47191
1.7652
1.05878
0.35249
35.4839
35.033
34.5241
33.9556
33.3288
32.6443
31.9007
31.0927
30.2122
29.2487
28.1914
27.0332
25.7746
24.4274
23.0168
21.5779
20.1503
18.7695
17.4611
16.2386
15.1052
14.0562
13.082
12.1712
11.3121
10.4938
9.70688
8.94358
8.19764
7.46425
6.73977
6.02149
5.30747
4.59631
3.88706
3.17904
2.47181
1.76508
1.05866
0.352389
35.2873
34.8937
34.4243
33.8817
33.2704
32.5936
31.8514
31.0406
30.1547
29.1856
28.1255
26.9701
25.7221
24.3938
23.008
21.5957
20.1914
18.8268
17.5262
16.3039
15.1652
14.1075
13.1236
12.2034
11.336
10.5109
9.71861
8.95131
8.20252
7.46715
6.74134
6.02223
5.30769
4.59625
3.88686
3.17879
2.47156
1.76487
1.05851
0.352324
35.1208
34.7837
34.3523
33.8343
33.238
32.5694
31.8304
31.0194
30.1312
29.1591
28.097
26.9423
25.6988
24.3793
23.0053
21.6056
20.2122
18.8549
17.5571
16.3339
15.1915
14.1289
13.1397
12.2147
11.3433
10.5151
9.72069
8.95195
8.20226
7.46641
6.74039
6.02123
5.30676
4.59543
3.88616
3.17822
2.47112
1.76455
1.05832
0.352291
35.009
34.7226
34.3239
33.8259
33.2416
32.5801
31.8454
31.0368
30.1495
29.1771
28.1137
26.957
25.7111
24.3888
23.0118
21.6089
20.2117
18.8504
17.5488
16.3222
15.1774
14.1134
13.124
12.1997
11.3296
10.5031
9.71052
8.94356
8.19551
7.46108
6.73627
6.01809
5.3044
4.59368
3.88488
3.17728
2.47044
1.76407
1.05804
0.352258
34.9696
34.7309
34.3558
33.8688
33.2902
32.633
31.9028
31.099
30.2163
29.2471
28.1836
27.0223
25.7663
24.4285
23.032
21.6075
20.1897
18.8109
17.4968
16.2633
15.1168
14.0554
13.0714
12.1541
11.2915
10.4722
9.68607
8.92469
8.18123
7.45047
6.72852
6.01251
5.30044
4.59091
3.88295
3.17595
2.46951
1.76341
1.05758
0.352093
35.1326
34.8517
34.4468
33.9402
33.3505
32.6889
31.9595
31.1602
30.2839
29.3205
28.2598
27.0951
25.8281
24.4713
23.0495
21.5973
20.1538
18.7552
17.4289
16.1913
15.0472
13.9927
13.0181
12.1107
11.2576
10.4466
9.66732
8.9113
8.17191
7.44415
6.72433
6.00983
5.29878
4.58992
3.8824
3.17566
2.46937
1.76334
1.05751
0.352017
35.1749
34.8368
34.4039
33.8838
33.2864
32.6184
31.8821
31.0751
30.1913
29.2225
28.1608
27.0019
25.7487
24.414
23.0207
21.5998
20.1863
18.8128
17.5041
16.2756
15.1332
14.0743
13.0914
12.1738
11.3099
10.4887
9.70032
8.93661
8.19095
7.45822
6.73457
6.01716
5.30396
4.59354
3.8849
3.17739
2.47057
1.76419
1.05811
0.352251
35.2869
34.8934
34.4239
33.8813
33.27
32.5932
31.851
31.0401
30.1542
29.1851
28.125
26.9696
25.7216
24.3934
23.0075
21.5951
20.1907
18.8261
17.5253
16.303
15.1642
14.1066
13.1227
12.2026
11.3352
10.5102
9.71804
8.95083
8.20212
7.46682
6.74109
6.02203
5.30755