# vtk DataFile Version 2.0
I need something to put here
ASCII

DATASET STRUCTURED_GRID
DIMENSIONS 41 21 21
POINTS 18081 float
0.000000 0.000000 0.000000
0.100000 0.000000 0.000000
0.200000 0.000000 0.000000
0.300000 0.000000 0.000000
0.400000 0.000000 0.000000
0.500000 0.000000 0.000000
0.600000 0.000000 0.000000
0.700000 0.000000 0.000000
0.800000 0.000000 0.000000
0.900000 0.000000 0.000000
1.000000 0.000000 0.000000
1.100000 0.000000 0.000000
1.200000 0.000000 0.000000
1.300000 0.000000 0.000000
1.400000 0.000000 0.000000
1.500000 0.000000 0.000000
1.600000 0.000000 0.000000
1.700000 0.000000 0.000000
1.800000 0.000000 0.000000
1.900000 0.000000 0.000000
2.000000 0.000000 0.000000
2.100000 0.000000 0.000000
2.200000 0.000000 0.000000
2.300000 0.000000 0.000000
2.400000 0.000000 0.000000
2.500000 0.000000 0.000000
2.600000 0.000000 0.000000
2.700000 0.000000 0.000000
2.800000 0.000000 0.000000
2.900000 0.000000 0.000000
3.000000 0.000000 0.000000
3.100000 0.000000 0.000000
3.200000 0.000000 0.000000
3.300000 0.000000 0.000000
3.400000 0.000000 0.000000
3.500000 0.000000 0.000000
3.600000 0.000000 0.000000
3.700000 0.000000 0.000000
3.800000 0.000000 0.000000
3.900000 0.000000 0.000000
4.000000 0.000000 0.000000
0.000000 0.100000 0.000000
0.100000 0.100000 0.000000
0.200000 0.100000 0.000000
0.300000 0.100000 0.000000
0.400000 0.100000 0.000000
0.500000 0.100000 0.000000
0.600000 0.100000 0.000000
0.700000 0.100000 0.000000
0.800000 0.100000 0.000000
0.900000 0.100000 0.000000
1.000000 0.100000 0.000000
1.100000 0.100000 0.000000
1.200000 0.100000 0.000000
1.300000 0.100000 0.000000
1.400000 0.100000 0.000000
1.500000 0.100000 0.000000
1.600000 0.100000 0.000000
1.700000 0.100000 0.000000
1.800000 0.100000 0.000000
1.900000 0.100000 0.000000
2.000000 0.100000 0.000000
2.100000 0.100000 0.000000
2.200000 0.100000 0.000000
2.300000 0.100000 0.000000
2.400000 0.100000 0.000000
2.500000 0.100000 0.000000
2.600000 0.100000 0.000000
2.700000 0.100000 0.000000
2.800000 0.100000 0.000000
2.900000 0.100000 0.000000
3.000000 0.100000 0.000000
3.100000 0.100000 0.000000
3.200000 0.100000 0.000000
3.300000 0.100000 0.000000
3.400000 0.100000 0.000000
3.500000 0.100000 0.000000
3.600000 0.100000 0.000000
3.700000 0.100000 0.000000
3.800000 0.100000 0.000000
3.900000 0.100000 0.000000
4.000000 0.100000 0.000000
0.000000 0.200000 0.000000
0.100000 0.200000 0.000000
0.200000 0.200000 0.000000
0.300000 0.200000 0.000000
0.400000 0.200000 0.000000
0.500000 0.200000 0.000000
0.600000 0.200000 0.000000
0.700000 0.200000 0.000000
0.800000 0.200000 0.000000
0.900000 0.200000 0.000000
1.000000 0.200000 0.000000
1.100000 0.200000 0.000000
1.200000 0.200000 0.000000
1.300000 0.200000 0.000000
1.400000 0.200000 0.000000
1.500000 0.200000 0.000000
1.600000 0.200000 0.000000
1.700000 0.200000 0.000000
1.800000 0.200000 0.000000
1.900000 0.200000 0.000000
2.000000 0.200000 0.000000
2.100000 0.200000 0.000000
2.200000 0.200000 0.000000
2.300000 0.200000 0.000000
2.400000 0.200000 0.000000
2.500000 0.200000 0.000000
2.600000 0.200000 0.000000
2.700000 0.200000 0.000000
2.800000 0.200000 0.000000
2.900000 0.200000 0.000000
3.000000 0.200000 0.000000
3.100000 0.200000 0.000000
3.200000 0.200000 0.000000
3.300000 0.200000 0.000000
3.400000 0.200000 0.000000
3.500000 0.200000 0.000000
3.600000 0.200000 0.000000
3.700000 0.200000 0.000000
3.800000 0.200000 0.000000
3.900000 0.200000 0.000000
4.000000 0.200000 0.000000
0.000000 0.300000 0.000000
0.100000 0.300000 0.000000
0.200000 0.300000 0.000000
0.300000 0.300000 0.000000
0.400000 0.300000 0.000000
0.500000 0.300000 0.000000
0.600000 0.300000 0.000000
0.700000 0.300000 0.000000
0.800000 0.300000 0.000000
0.900000 0.300000 0.000000
1.000000 0.300000 0.000000
1.100000 0.300000 0.000000
1.200000 0.300000 0.000000
1.300000 0.300000 0.000000
1.400000 0.300000 0.000000
1.500000 0.300000 0.000000
1.600000 0.300000 0.000000
1.700000 0.300000 0.000000
1.800000 0.300000 0.000000
1.900000 0.300000 0.000000
2.000000 0.300000 0.000000
2.100000 0.300000 0.000000
2.200000 0.300000 0.000000
2.300000 0.300000 0.000000
2.400000 0.300000 0.000000
2.500000 0.300000 0.000000
2.600000 0.300000 0.000000
2.700000 0.300000 0.000000
2.800000 0.300000 0.000000
2.900000 0.300000 0.000000
3.000000 0.300000 0.000000
3.100000 0.300000 0.000000
3.200000 0.300000 0.000000
3.300000 0.300000 0.000000
3.400000 0.300000 0.000000
3.500000 0.300000 0.000000
3.600000 0.300000 0.000000
3.700000 0.300000 0.000000
3.800000 0.300000 0.000000
3.900000 0.300000 0.000000
4.000000 0.300000 0.000000
0.000000 0.400000 0.000000
0.100000 0.400000 0.000000
0.200000 0.400000 0.000000
0.300000 0.400000 0.000000
0.400000 0.400000 0.000000
0.500000 0.400000 0.000000
0.600000 0.400000 0.000000
0.700000 0.400000 0.000000
0.800000 0.400000 0.000000
0.900000 0.400000 0.000000
1.000000 0.400000 0.000000
1.100000 0.400000 0.000000
1.200000 0.400000 0.000000
1.300000 0.400000 0.000000
1.400000 0.400000 0.000000
1.500000 0.400000 0.000000
1.600000 0.400000 0.000000
1.700000 0.400000 0.000000
1.800000 0.400000 0.000000
1.900000 0.400000 0.000000
2.000000 0.400000 0.000000
2.100000 0.400000 0.000000
2.200000 0.400000 0.000000
2.300000 0.400000 0.000000
2.400000 0.400000 0.000000
2.500000 0.400000 0.000000
2.600000 0.400000 0.000000
2.700000 0.400000 0.000000
2.800000 0.400000 0.000000
2.900000 0.400000 0.000000
3.000000 0.400000 0.000000
3.100000 0.400000 0.000000
3.200000 0.400000 0.000000
3.300000 0.400000 0.000000
3.400000 0.400000 0.000000
3.500000 0.400000 0.000000
3.600000 0.400000 0.000000
3.700000 0.400000 0.000000
3.800000 0.400000 0.000000
3.900000 0.400000 0.000000
4.000000 0.400000 0.000000
0.000000 0.500000 0.000000
0.100000 0.500000 0.000000
0.200000 0.500000 0.000000
0.300000 0.500000 0.000000
0.400000 0.500000 0.000000
0.500000 0.500000 0.000000
0.600000 0.500000 0.000000
0.700000 0.500000 0.000000
0.800000 0.500000 0.000000
0.900000 0.500000 0.000000
1.000000 0.500000 0.000000
1.100000 0.500000 0.000000
1.200000 0.500000 0.000000
1.300000 0.500000 0.000000
1.400000 0.500000 0.000000
1.500000 0.500000 0.000000
1.600000 0.500000 0.000000
1.700000 0.500000 0.000000
1.800000 0.500000 0.000000
1.900000 0.500000 0.000000
2.000000 0.500000 0.000000
2.100000 0.500000 0.000000
2.200000 0.500000 0.000000
2.300000 0.500000 0.000000
2.400000 0.500000 0.000000
2.500000 0.500000 0.000000
2.600000 0.500000 0.000000
2.700000 0.500000 0.000000
2.800000 0.500000 0.000000
2.900000 0.500000 0.000000
3.000000 0.500000 0.000000
3.100000 0.500000 0.000000
3.200000 0.500000 0.000000
3.300000 0.500000 0.000000
3.400000 0.500000 0.000000
3.500000 0.500000 0.000000
3.600000 0.500000 0.000000
3.700000 0.500000 0.000000
3.800000 0.500000 0.000000
3.900000 0.500000 0.000000
4.000000 0.500000 0.000000
0.000000 0.600000 0.000000
0.100000 0.600000 0.000000
0.200000 0.600000 0.000000
0.300000 0.600000 0.000000
0.400000 0.600000 0.000000
0.500000 0.600000 0.000000
0.600000 0.600000 0.000000
0.700000 0.600000 0.000000
0.800000 0.600000 0.000000
0.900000 0.600000 0.000000
1.000000 0.600000 0.000000
1.100000 0.600000 0.000000
1.200000 0.600000 0.000000
1.300000 0.600000 0.000000
1.400000 0.600000 0.000000
1.500000 0.600000 0.000000
1.600000 0.600000 0.000000
1.700000 0.600000 0.000000
1.800000 0.600000 0.000000
1.900000 0.600000 0.000000
2.000000 0.600000 0.000000
2.100000 0.600000 0.000000
2.200000 0.600000 0.000000
2.300000 0.600000 0.000000
2.400000 0.600000 0.000000
2.500000 0.600000 0.000000
2.600000 0.600000 0.000000
2.700000 0.600000 0.000000
2.800000 0.600000 0.000000
2.900000 0.600000 0.000000
3.000000 0.600000 0.000000
3.100000 0.600000 0.000000
3.200000 0.600000 0.000000
3.300000 0.600000 0.000000
3.400000 0.600000 0.000000
3.500000 0.600000 0.000000
3.600000 0.600000 0.000000
3.700000 0.600000 0.000000
3.800000 0.600000 0.000000
3.900000 0.600000 0.000000
4.000000 0.600000 0.000000
0.000000 0.700000 0.000000
0.100000 0.700000 0.000000
0.200000 0.700000 0.000000
0.300000 0.700000 0.000000
0.400000 0.700000 0.000000
0.500000 0.700000 0.000000
0.600000 0.700000 0.000000
0.700000 0.700000 0.000000
0.800000 0.700000 0.000000
0.900000 0.700000 0.000000
1.000000 0.700000 0.000000
1.100000 0.700000 0.000000
1.200000 0.700000 0.000000
1.300000 0.700000 0.000000
1.400000 0.700000 0.000000
1.500000 0.700000 0.000000
1.600000 0.700000 0.000000
1.700000 0.700000 0.000000
1.800000 0.700000 0.000000
1.900000 0.700000 0.000000
2.000000 0.700000 0.000000
2.100000 0.700000 0.000000
2.200000 0.700000 0.000000
2.300000 0.700000 0.000000
2.400000 0.700000 0.000000
2.500000 0.700000 0.000000
2.600000 0.700000 0.000000
2.700000 0.700000 0.000000
2.800000 0.700000 0.000000
2.900000 0.700000 0.000000
3.000000 0.700000 0.000000
3.100000 0.700000 0.000000
3.200000 0.700000 0.000000
3.300000 0.700000 0.000000
3.400000 0.700000 0.000000
3.500000 0.700000 0.000000
3.600000 0.700000 0.000000
3.700000 0.700000 0.000000
3.800000 0.700000 0.000000
3.900000 0.700000 0.000000
4.000000 0.700000 0.000000
0.000000 0.800000 0.000000
0.100000 0.800000 0.000000
0.200000 0.800000 0.000000
0.300000 0.800000 0.000000
0.400000 0.800000 0.000000
0.500000 0.800000 0.000000
0.600000 0.800000 0.000000
0.700000 0.800000 0.000000
0.800000 0.800000 0.000000
0.900000 0.800000 0.000000
1.000000 0.800000 0.000000
1.100000 0.800000 0.000000
1.200000 0.800000 0.000000
1.300000 0.800000 0.000000
1.400000 0.800000 0.000000
1.500000 0.800000 0.000000
1.600000 0.800000 0.000000
1.700000 0.800000 0.000000
1.800000 0.800000 0.000000
1.900000 0.800000 0.000000
2.000000 0.800000 0.000000
2.100000 0.800000 0.000000
2.200000 0.800000 0.000000
2.300000 0.800000 0.000000
2.400000 0.800000 0.000000
2.500000 0.800000 0.000000
2.600000 0.800000 0.000000
2.700000 0.800000 0.000000
2.800000 0.800000 0.000000
2.900000 0.800000 0.000000
3.000000 0.800000 0.000000
3.100000 0.800000 0.000000
3.200000 0.800000 0.000000
3.300000 0.800000 0.000000
3.400000 0.800000 0.000000
3.500000 0.800000 0.000000
3.600000 0.800000 0.000000
[...]
CELL_DATA 16000
SCALARS pressure float 1
LOOKUP_TABLE default
34.6339
34.4571
34.12
33.6565
33.0921
32.4433
31.7178
30.9167
30.0363
29.0706
28.0136
26.8631
25.6231
24.3062
22.9342
21.5354
20.1419
18.7837
17.4852
16.2622
15.1217
14.0628
13.0792
12.1609
11.2968
10.4761
9.6887
8.9263
8.18211
7.45086
6.7286
6.01242
5.30028
4.59072
3.88278
3.17582
2.46943
1.76341
1.05767
0.352288
34.6896
34.4872
34.1362
33.665
33.0965
32.4455
31.7191
30.918
30.0381
29.073
28.0167
26.8665
25.6263
24.3086
22.935
21.5346
20.1395
18.7803
17.4814
16.2586
15.1188
14.0608
13.078
12.1604
11.2969
10.4765
9.68933
8.92701
8.18281
7.4515
6.72916
6.01289
5.30066
4.59103
3.88302
3.176
2.46956
1.76349
1.0577
0.35224
34.8098
34.5708
34.1956
33.7091
33.1317
32.4765
31.7496
30.9503
30.0736
29.1118
28.0573
26.9057
25.66
24.3324
22.9456
21.5304
20.1215
18.7517
17.4463
16.2213
15.0828
14.0286
13.0507
12.1385
11.28
10.4639
9.68025
8.92066
8.17851
7.44868
6.72737
6.01181
5.30004
4.5907
3.88287
3.17594
2.46955
1.76348
1.05765
0.352142
34.9728
34.6916
34.2865
33.7803
33.1916
32.5319
31.8056
31.0108
30.1406
29.1849
28.1332
26.9788
25.7224
24.376
22.964
21.5211
20.0866
18.6969
17.3796
16.1507
15.0148
13.9676
12.9992
12.0968
11.2476
10.4396
9.66251
8.90808
8.16981
7.44282
6.72353
6.00937
5.29854
4.58982
3.88238
3.17569
2.46942
1.7634
1.05757
0.352057
35.1576
34.8342
34.3976
33.8705
33.2701
32.6067
31.8831
31.0957
30.2353
29.2886
28.2415
27.083
25.8111
24.4373
22.9888
21.5057
20.0341
18.6163
17.2826
16.0488
14.9174
13.8809
12.926
12.0379
11.202
10.4053
9.63754
8.89034
8.15752
7.43451
6.71805
6.00585
5.29635
4.5885
3.88163
3.17528
2.46921
1.76328
1.05749
0.352005
35.3447
34.9831
34.5169
33.9699
33.359
32.6934
31.9747
31.1976
30.35
29.4152
28.3742
27.2113
25.9204
24.5125
23.018
21.4844
19.9668
18.5145
17.1613
15.9228
14.7979
13.7752
12.8376
11.9671
11.1472
10.3644
9.60779
8.86925
8.14291
7.42463
6.71152
6.00164
5.29372
4.58691
3.8807
3.17478
2.46895
1.76315
1.05743
0.351987
35.5172
35.1235
34.6318
34.0677
33.4484
32.7824
32.0703
31.3051
30.4723
29.5512
28.5179
27.3509
26.0398
24.5944
23.049
21.4593
19.891
18.4014
17.0281
15.7855
14.669
13.662
12.7435
11.8922
11.0897
10.3216
9.57674
8.84729
8.12774
7.41437
6.70474
5.99728
5.29098
4.58526
3.87974
3.17425
2.46868
1.76303
1.05739
0.351998
35.6605
35.242
34.7303
34.1531
33.5277
32.8626
32.1576
31.4043
30.5862
29.679
28.6538
27.4839
26.1542
24.6729
23.0781
21.4341
19.8169
18.2921
16.9005
15.6552
14.5476
13.5564
12.6562
11.8231
11.0369
10.2824
9.54846
8.82734
8.11398
7.40509
6.69862
5.99333
5.28851
4.58376
3.87887
3.17377
2.46844
1.76293
1.05737
0.352023
35.7629
35.3276
34.8023
34.2162
33.5871
32.9233
32.2243
31.4809
30.6747
29.7789
28.761
27.5894
26.2453
24.7355
23.1012
21.4133
19.7571
18.2046
16.7991
15.5525
14.4525
13.4742
12.5887
11.7699
10.9965
10.2525
9.52692
8.81219
8.10355
7.39806
6.69399
5.99036
5.28665
4.58263
3.87822
3.17341
2.46826
1.76286
1.05736
0.35205
35.8162
35.3724
34.8403
34.2497
33.6189
32.956
32.2605
31.5226
30.7232
29.834
28.8202
27.648
26.2961
24.7706
23.114
21.4016
19.7235
18.1557
16.7428
15.4957
14.4003
13.4292
12.5519
11.741
10.9746
10.2364
9.51532
8.80404
8.09795
7.3943
6.69152
5.98877
5.28566
4.58203
3.87787
3.17322
2.46817
1.76282
1.05736
0.352068
35.8162
35.3724
34.8403
34.2497
33.6189
32.9561
32.2605
31.5227
30.7233
29.834
28.8202
27.648
26.2961
24.7705
23.114
21.4016
19.7236
18.1558
16.7429
15.4958
14.4004
13.4293
12.552
11.7411
10.9747
10.2365
9.5154
8.80411
8.09801
7.39435
6.69156
5.9888
5.28568
4.58205
3.87788
3.17323
2.46818
1.76283
1.05736
0.352069
35.7629
35.3276
34.8024
34.2162
33.5872
32.9234
32.2244
31.481
30.6748
29.779
28.761
27.5894
26.2452
24.7355
23.1011
21.4134
19.7573
18.2048
16.7994
15.5529
14.453
13.4746
12.5891
11.7703
10.9968
10.2528
9.52718
8.8124
8.10373
7.39821
6.69411
5.99045
5.28672
4.58268
3.87826
3.17344
2.46828
1.76287
1.05736
0.352053
35.6606
35.2421
34.7304
34.1532
33.5278
32.8627
32.1577
31.4044
30.5863
29.6791
28.6539
27.4839
26.1541
24.6728
23.0781
21.4342
19.8172
18.2925
16.901
15.6558
14.5482
13.557
12.6569
11.8237
11.0375
10.2829
9.54887
8.82769
8.11426
7.40532
6.6988
5.99348
5.28862
4.58384
3.87893
3.17381
2.46847
1.76295
1.05737
0.352027
35.5174
35.1237
34.6319
34.0678
33.4485
32.7825
32.0704
31.3052
30.4724
29.5513
28.5179
27.3509
26.0398
24.5943
23.049
21.4595
19.8913
18.4019
17.0288
15.7863
14.6698
13.6629
12.7443
11.893
11.0904
10.3222
9.57728
8.84775
8.12811
7.41468
6.70499
5.99747
5.29113
4.58536
3.87982
3.1743
2.46872
1.76305
1.0574
0.352003
35.3449
34.9833
34.5171
33.97
33.3591
32.6936
31.9749
31.1977
30.3501
29.4153
28.3743
27.2113
25.9204
24.5125
23.0181
21.4846
19.9673
18.5151
17.1622
15.9237
14.799
13.7762
12.8386
11.968
11.1481
10.3652
9.60843
8.86979
8.14336
7.42499
6.71181
6.00187
5.29389
4.58704
3.8808
3.17484
2.46899
1.76318
1.05744
0.351993
35.1577
34.8343
34.3978
33.8706
33.2703
32.6068
31.8833
31.0959
30.2355
29.2888
28.2416
27.0831
25.8111
24.4374
22.989
21.506
20.0347
18.6171
17.2835
16.0499
14.9186
13.882
12.9272
12.039
11.2029
10.4062
9.63825
8.89094
8.15802
7.43491
6.71836
6.00609
5.29653
4.58864
3.88172
3.17535
2.46925
1.76331
1.0575
0.352009
34.973
34.6917
34.2867
33.7805
33.1918
32.5321
31.8058
31.011
30.1407
29.185
28.1333
26.9789
25.7224
24.3761
22.9642
21.5215
20.0872
18.6977
17.3806
16.1519
15.016
13.9689
13.0003
12.0979
11.2486
10.4405
9.66327
8.90871
8.17033
7.44324
6.72386
6.00962
5.29873
4.58996
3.88248
3.17576
2.46946
1.76342
1.05758
0.352061
34.81
34.5709
34.1958
33.7092
33.1318
32.4767
31.7497
30.9504
30.0738
29.1119
28.0573
26.9058
25.66
24.3325
22.9458
21.5308
20.1222
18.7526
17.4474
16.2225
15.084
14.0298
13.0519
12.1396
11.281
10.4648
9.68101
8.9213
8.17902
7.44909
6.72769
6.01206
5.30022
4.59083
3.88296
3.176
2.46959
1.76349
1.05765
0.352143
34.6897
34.4874
34.1364
33.6652
33.0967
32.4457
31.7193
30.9181
30.0382
29.0731
28.0168
26.8666
25.6264
24.3087
22.9353
21.5351
20.1402
18.7812
17.4825
16.2598
15.12
14.062
13.0791
12.1615
11.2979
10.4774
9.69007
8.92762
8.18331
7.4519
6.72947
6.01313
5.30084
4.59115
3.8831
3.17605
2.46959
1.7635
1.0577
0.352238
34.6341
34.4572
34.1202
33.6566
33.0923
32.4435
31.718
30.9168
30.0365
29.0707
28.0137
26.8632
25.6232
24.3064
22.9345
21.5359
20.1425
18.7845
17.4862
16.2633
15.1228
14.064
13.0803
12.1619
11.2978
10.4769
9.68941
8.92689
8.18259
7.45124
6.7289
6.01265
5.30044
4.59084
3.88286
3.17586
2.46945
1.76341
1.05766
0.352282
34.6896
34.4872
34.1362
33.665
33.0965
32.4455
31.7191
30.918
30.038
29.073
28.0167
26.8665
25.6263
24.3085
22.935
21.5346
20.1395
18.7803
17.4814
16.2587
15.1188
14.0608
13.078
12.1604
11.2969
10.4765
9.68934
8.92701
8.18281
7.4515
6.72916
6.0129
5.30066
4.59103
3.88302
3.176
2.46956
1.76349
1.0577
0.35224
34.7332
34.4925
34.1227
33.6427
33.07
32.4163
31.6875
30.8839
30.0018
29.0355
27.9796
26.8321
25.5972
24.2876
22.9242
21.5348
20.1505
18.8005
17.5083
16.2895
15.1508
14.0917
13.1063
12.1853
11.3179
10.4937
9.703
8.93764
8.1909
7.45756
6.73361
6.01611
5.30295
4.59264
3.88414
3.17678
2.47011
1.76387
1.05796
0.352314
34.8495
34.5627
34.1641
33.6667
33.0837
32.4244
31.6931
30.889
30.0077
29.0427
27.988
26.8408
25.6049
24.2926
22.9253
21.5316
20.1435
18.791
17.498
16.2798
15.1428
14.0859
13.1026
12.1834
11.3175
10.4942
9.70416
8.93908
8.19241
7.45899
6.73489
6.01721
5.30386
4.59337
3.88471
3.17722
2.47044
1.76411
1.05808
0.352296
35.0156
34.6771
34.2441
33.7246
33.1284
32.4626
31.7296
30.9271
30.0493
29.088
28.0351
26.886
25.6431
24.3186
22.9349
21.5234
20.1189
18.7543
17.4544
16.2345
15.1
14.0483
13.0715
12.1588
11.299
10.4808
9.69481
8.93281
8.18839
7.45654
6.7335
6.0165
5.30358
4.59333
3.8848
3.17736
2.47058
1.76422
1.05814
0.352279
35.2073
34.8169
34.3483
33.8054
33.1954
32.5234
31.7901
30.9917
30.1201
29.1646
28.1143
26.9616
25.7068
24.3616
22.9507
21.5094
20.078
18.693
17.3817
16.1588
15.0281
13.9845
13.018
12.1161
11.266
10.4564
9.67718
8.9205
8.18004
7.45105
6.73001
6.01438
5.30236
4.59268
3.88451
3.17726
2.47058
1.76425
1.05817
0.352289
35.4027
34.9648
34.4627
33.8975
33.2747
32.5979
31.8661
31.0739
30.2109
29.2634
28.2167
27.0596
25.7893
24.4171
22.9705
21.4902
20.0236
18.6127
17.2869
16.0607
14.9352
13.9024
12.9492
12.0609
11.2235
10.4246
9.65414
8.90424
8.16887
7.44358
6.72516
6.01133
5.30051
4.59162
3.88394
3.177
2.47049
1.76424
1.05819
0.352329
35.583
35.1049
34.5738
33.9894
33.356
32.676
31.9473
31.1628
30.3099
29.3718
28.3298
27.1683
25.8812
24.4789
22.9919
21.4678
19.9618
18.5222
17.1812
15.9521
14.8332
13.8127
12.8744
12.0011
11.1774
10.3902
9.62915
8.88656
8.15668
7.43538
6.71978
6.00791
5.29841
4.59039
3.88326
3.17665
2.47034
1.7642
1.05821
0.352389
35.7328
35.2233
34.6695
34.07
33.4286
32.747
32.0222
31.2457
30.403
29.4745
28.4378
27.2728
25.97
24.5387
23.0124
21.4452
19.9011
18.4344
17.0794
15.8485
14.7366
13.7283
12.8044
11.9454
11.1345
10.3582
9.60597
8.87017
8.14535
7.42774
6.71476
6.0047
5.29642
4.58921
3.88259
3.17631
2.47018
1.76416
1.05823
0.352456
35.8398
35.3089
34.7395
34.1298
33.4831
32.8009
32.0796
31.3098
30.4756
29.5551
28.5231
27.356
26.0412
24.5869
23.0287
21.4267
19.8519
18.3638
16.9984
15.7667
14.6608
13.6625
12.75
11.9023
11.1015
10.3336
9.58817
8.85759
8.13666
7.42188
6.71091
6.00223
5.29489
4.58829
3.88207
3.17603
2.47006
1.76412
1.05825
0.352512
35.8955
35.3537
34.7764
34.1615
33.5123
32.83
32.1108
31.3448
30.5154
29.5995
28.5703
27.4023
26.081
24.6139
23.0379
21.4162
19.8242
18.3244
16.9534
15.7215
14.6192
13.6265
12.7204
11.8788
11.0836
10.3203
9.57855
8.8508
8.13198
7.41873
6.70883
6.0009
5.29406
4.5878
3.8818
3.17589
2.47
1.7641
1.05826
0.352543
35.8955
35.3538
34.7765
34.1615
33.5124
32.83
32.1108
31.3448
30.5154
29.5996
28.5703
27.4023
26.081
24.6139
23.0379
21.4162
19.8243
18.3244
16.9535
15.7216
14.6193
13.6267
12.7205
11.879
11.0837
10.3204
9.57863
8.85086
8.13204
7.41877
6.70887
6.00093
5.29409
4.58781
3.88181
3.1759
2.47
1.76411
1.05826
0.352543
35.8399
35.309
34.7396
34.1298
33.4832
32.801
32.0797
31.3099
30.4757
29.5552
28.5231
27.356
26.0411
24.5868
23.0287
21.4268
19.8521
18.3641
16.9987
15.767
14.6612
13.6629
12.7504
11.9026
11.1018
10.3339
9.58841
8.85779
8.13683
7.42202
6.71101
6.00231
5.29495
4.58834
3.88211
3.17606
2.47008
1.76413
1.05825
0.352511
35.7329
35.2234
34.6696
34.0701
33.4287
32.7471
32.0223
31.2458
30.4031
29.4746
28.4378
27.2728
25.97
24.5387
23.0124
21.4454
19.9013
18.4348
17.0799
15.849
14.7372
13.729
12.805
11.9459
11.135
10.3586
9.60635
8.87049
8.14562
7.42796
6.71494
6.00483
5.29653
4.58929
3.88265
3.17635
2.47021
1.76417
1.05823
0.352455
35.5832
35.105
34.574
33.9895
33.3561
32.6761
31.9475
31.163
30.3101
29.3719
28.3299
27.1684
25.8812
24.4789
22.992
21.468
19.9621
18.5228
17.1818
15.9528
14.834
13.8135
12.8752
12.0019
11.1781
10.3907
9.62965
8.88699
8.15703
7.43566
6.72001
6.00809
5.29855
4.59049
3.88334
3.1767
2.47037
1.76422
1.05821
0.352388
35.4028
34.965
34.4628
33.8976
33.2749
32.598
31.8663
31.0741
30.2111
29.2635
28.2168
27.0597
25.7893
24.4172
22.9706
21.4905
20.0241
18.6133
17.2876
16.0615
14.9362
13.9034
12.9502
12.0618
11.2243
10.4253
9.65474
8.90475
8.1693
7.44393
6.72543
6.01155
5.30068
4.59175
3.88403
3.17706
2.47052
1.76426
1.05819
0.352327
35.2075
34.8171
34.3485
33.8055
33.1955
32.5235
31.7903
30.9918
30.1202
29.1647
28.1144
26.9617
25.7069
24.3617
22.9509
21.5098
20.0785
18.6937
17.3825
16.1598
15.0291
13.9856
13.019
12.117
11.2669
10.4571
9.67785
8.92107
8.18051
7.45143
6.73032
6.01462
5.30254
4.59282
3.8846
3.17733
2.47062
1.76427
1.05817
0.352287
35.0158
34.6773
34.2443
33.7248
33.1286
32.4628
31.7297
30.9273
30.0495
29.0881
28.0352
26.8861
25.6432
24.3187
22.9352
21.5238
20.1195
18.755
17.4553
16.2356
15.1011
14.0494
13.0725
12.1599
11.2999
10.4816
9.69551
8.93341
8.18889
7.45694
6.73382
6.01675
5.30376
4.59347
3.8849
3.17742
2.47062
1.76424
1.05814
0.352276
34.8497
34.5629
34.1642
33.6668
33.0838
32.4246
31.6932
30.8892
30.0079
29.0429
27.9881
26.8409
25.605
24.2928
22.9256
21.532
20.1441
18.7918
17.499
16.2809
15.1439
14.087
13.1037
12.1844
11.3184
10.4951
9.70487
8.93968
8.19291
7.45939
6.7352
6.01745
5.30404
4.5935
3.88481
3.17728
2.47047
1.76412
1.05808
0.352292
34.7334
34.4927
34.1229
33.6429
33.0701
32.4165
31.6876
30.8841
30.002
29.0357
27.9797
26.8322
25.5974
24.2878
22.9245
21.5353
20.1512
18.8013
17.5093
16.2905
15.1519
14.0929
13.1074
12.1863
11.3188
10.4945
9.70371
8.93823
8.19139
7.45794
6.73391
6.01634
5.30313
4.59276
3.88422
3.17683
2.47013
1.76388
1.05795
0.352309
34.6897
34.4874
34.1364
33.6652
33.0967
32.4457
31.7193
30.9182
30.0382
29.0732
28.0169
26.8667
25.6264
24.3087
22.9353
21.535
20.1401
18.7811
17.4824
16.2597
15.1199
14.0619
13.0791
12.1614
11.2978
10.4773
9.69001
8.92758
8.18327
7.45187
6.72944
6.01311
5.30082
4.59113
3.88309
3.17604
2.46958
1.76349
1.05769
0.35223
34.8098
34.5708
34.1956
33.709
33.1316
32.4765
31.7495
30.9503
30.0736
29.1118
28.0572
26.9057
25.6599
24.3323
22.9455
21.5304
20.1215
18.7517
17.4463
16.2214
15.0829
14.0286
13.0508
12.1385
11.28
10.4639
9.68027
8.92067
8.17851
7.44868
6.72737
6.01181
5.30004
4.5907
3.88287
3.17595
2.46955
1.76348
1.05765
0.352143
34.8495
34.5627
34.1641
33.6666
33.0837
32.4244
31.693
30.889
30.0077
29.0427
27.9879
26.8407
25.6048
24.2925
22.9253
21.5316
20.1435
18.791
17.498
16.2798
15.1428
14.0859
13.1026
12.1834
11.3175
10.4943
9.70416
8.93909
8.19242
7.45899
6.73489
6.01721
5.30386
4.59337
3.88472
3.17722
2.47044
1.76411
1.05808
0.352296
34.9615
34.624
34.1926
33.6752
33.0803
32.4139
31.6782
30.8718
29.9895
29.0248
27.9713
26.8261
25.5927
24.2832
22.9189
21.5284
20.1439
18.7954
17.5063
16.2915
15.1568
14.1012
13.1181
12.1982
11.331
10.506
9.71415
8.94731
8.19903
7.46419
6.73891
6.02027
5.30615
4.59507
3.88596
3.17812
2.47109
1.76456
1.05835
0.352327
35.128
34.7338
34.2644
33.7224
33.1124
32.4378
31.6988
30.8925
30.0125
29.0508
27.9995
26.8539
25.6162
24.2981
22.9219
21.5187
20.1232
18.7674
17.4755
16.2618
15.1309
14.0803
13.1025
12.1873
11.3239
10.502
9.71221
8.94676
8.19933
7.46496
6.73986
6.02125
5.30707
4.59587
3.88664
3.17867
2.47152
1.76487
1.05853
0.352358
35.3241
34.8726
34.3637
33.7958
33.1701
32.4877
31.7472
30.9436
30.069
29.1129
28.0648
26.9169
25.669
24.3323
22.9312
21.5012
20.0823
18.7103
17.4108
16.1971
15.0718
14.0298
13.0617
12.1559
11.3007
10.4854
9.70088
8.93931
8.19466
7.4622
6.73838
6.02057
5.30688
4.59595
3.88685
3.17893
2.47176
1.76507
1.05867
0.352422
35.5266
35.0217
34.4756
33.883
33.2428
32.5541
31.8139
31.0156
30.1491
29.2012
28.1575
27.0065
25.7443
24.3812
22.9446
21.4764
20.0243
18.6296
17.3196
16.1062
14.9886
13.9585
13.0035
12.1104
11.2664
10.4605
9.68325
8.92724
8.18665
7.45707
6.73523
6.01875
5.3059
4.5955
3.88671
3.17896
2.47187
1.76521
1.05879
0.352519
35.7148
35.1642
34.5857
33.9717
33.3193
32.6262
31.888
31.0969
30.2404
29.3026
28.2651
27.1112
25.8331
24.4392
22.9603
21.4465
19.9552
18.5346
17.2135
16.0014
14.8935
13.8773
12.9374
12.0587
11.2274
10.4319
9.66285
8.91309
8.17711
7.45083
6.73128
6.01635
5.30453
4.59478
3.88638
3.17886
2.4719
1.76529
1.0589
0.352638
35.8719
35.2851
34.6811
34.0502
33.3886
32.6929
31.9579
31.1744
30.3286
29.4015
28.3711
27.2158
25.9228
24.4983
22.9762
21.4155
19.8847
18.4389
17.1082
15.8988
14.8013
13.7992
12.8743
12.0095
11.1902
10.4046
9.64338
8.89953
8.16791
7.44475
6.72738
6.01394
5.3031
4.59399
3.88599
3.17871
2.47188
1.76534
1.05898
0.352757
35.9843
35.3728
34.7511
34.1088
33.441
32.7441
32.0122
31.2353
30.3984
29.4807
28.457
27.3016
25.9974
24.5481
22.9896
21.3892
19.8254
18.3596
17.0224
15.8162
14.7279
13.7375
12.8247
11.971
11.1612
10.3834
9.62821
8.88896
8.16072
7.43998
6.72431
6.01203
5.30196
4.59335
3.88566
3.17856
2.47184
1.76536
1.05905
0.352852
36.0428
35.4188
34.7881
34.1399
33.4692
32.7719
32.0418
31.2688
30.437
29.5248
28.5052
27.3503
26.0403
24.577
22.9974
21.3739
19.791
18.3143
16.9738
15.7701
14.6872
13.7036
12.7975
11.95
11.1454
10.3718
9.61996
8.88322
8.15681
7.43739
6.72265
6.01099
5.30134
4.593
3.88548
3.17849
2.47183
1.76538
1.05908
0.352904
36.0429
35.4188
34.7882
34.14
33.4692
32.7719
32.0418
31.2688
30.437
29.5248
28.5052
27.3503
26.0403
24.577
22.9974
21.3739
19.7911
18.3144
16.974
15.7702
14.6873
13.7037
12.7976
11.9501
11.1456
10.3719
9.62004
8.88328
8.15687
7.43744
6.72268
6.01101
5.30136
4.59301
3.88549
3.1785
2.47183
1.76538
1.05908
0.352903
35.9843
35.3728
34.7512
34.1088
33.4411
32.7442
32.0122
31.2354
30.3985
29.4807
28.457
27.3016
25.9973
24.548
22.9896
21.3893
19.8256
18.3599
17.0227
15.8166
14.7283
13.7379
12.825
11.9713
11.1615
10.3836
9.62844
8.88915
8.16088
7.44011
6.72442
6.01211
5.30203
4.5934
3.8857
3.17859
2.47186
1.76537
1.05905
0.352849
35.872
35.2852
34.6812
34.0503
33.3887
32.693
31.958
31.1745
30.3287
29.4016
28.3712
27.2158
25.9227
24.4982
22.9762
21.4157
19.8849
18.4393
17.1087
15.8994
14.8019
13.7998
12.8748
12.01
11.1907
10.405
9.64374
8.89984
8.16816
7.44496
6.72755
6.01407
5.30321
4.59407
3.88605
3.17875
2.4719
1.76535
1.05899
0.352752
35.715
35.1643
34.5858
33.9718
33.3194
32.6263
31.8882
31.097
30.2406
29.3028
28.2652
27.1113
25.8331
24.4392
22.9604
21.4467
19.9556
18.5351
17.2142
16.0022
14.8943
13.8781
12.9382
12.0594
11.228
10.4324
9.66334
8.9135
8.17745
7.4511
6.7315
6.01652
5.30466
4.59488
3.88645
3.17891
2.47193
1.76531
1.0589
0.352633
35.5267
35.0219
34.4758
33.8831
33.2429
32.5543
31.814
31.0157
30.1493
29.2013
28.1577
27.0066
25.7443
24.3813
22.9448
21.4767
20.0247
18.6302
17.3204
16.107
14.9895
13.9594
13.0044
12.1112
11.2672
10.4612
9.68382
8.92773
8.18705
7.4574
6.7355
6.01895
5.30606
4.59562
3.8868
3.17902
2.47191
1.76523
1.0588
0.352512
35.3243
34.8728
34.3639
33.7959
33.1703
32.4879
31.7473
30.9438
30.0692
29.1131
28.0649
26.917
25.6691
24.3324
22.9314
21.5015
20.0828
18.711
17.4116
16.198
15.0728
14.0309
13.0627
12.1568
11.3015
10.4862
9.70152
8.93986
8.19512
7.46257
6.73868
6.0208
5.30705
4.59608
3.88694
3.17899
2.4718
1.7651
1.05867
0.352414
35.1281
34.734
34.2645
33.7226
33.1126
32.4379
31.699
30.8927
30.0127
29.051
27.9996
26.8541
25.6163
24.2982
22.9221
21.5191
20.1238
18.7682
17.4764
16.2628
15.132
14.0814
13.1035
12.1883
11.3248
10.5028
9.71289
8.94734
8.19981
7.46534
6.74017
6.02149
5.30725
4.596
3.88673
3.17873
2.47156
1.76489
1.05853
0.352349
34.9617
34.6242
34.1928
33.6754
33.0805
32.414
31.6784
30.8719
29.9897
29.0249
27.9714
26.8262
25.5929
24.2834
22.9192
21.5289
20.1446
18.7962
17.5073
16.2925
15.158
14.1024
13.1192
12.1992
11.3319
10.5069
9.71485
8.9479
8.19951
7.46458
6.73922
6.0205
5.30633
4.59519
3.88604
3.17818
2.47112
1.76457
1.05835
0.352318
34.8497
34.5629
34.1642
33.6668
33.0838
32.4246
31.6932
30.8892
30.0079
29.0428
27.9881
26.8408
25.6049
24.2927
22.9256
21.5321
20.1441
18.7919
17.4991
16.2809
15.144
14.087
13.1037
12.1844
11.3184
10.4951
9.70486
8.93966
8.19289
7.45937
6.73518
6.01743
5.30402
4.59348
3.88479
3.17726
2.47046
1.76411
1.05807
0.352286
34.81
34.5709
34.1958
33.7092
33.1318
32.4767
31.7497
30.9505
30.0738
29.112
28.0573
26.9058
25.66
24.3325
22.9458
21.5308
20.1222
18.7526
17.4474
16.2225
15.084
14.0297
13.0519
12.1395
11.2809
10.4647
9.68092
8.92121
8.17895
7.44902
6.72763
6.012
5.30017
4.59079
3.88292
3.17597
2.46956
1.76347
1.05763
0.352125
34.9728
34.6916
34.2865
33.7803
33.1916
32.5319
31.8056
31.0108
30.1405
29.1848
28.1331
26.9787
25.7222
24.3758
22.9639
21.5211
20.0866
18.6969
17.3797
16.1508
15.0149
13.9677
12.9992
12.0969
11.2477
10.4396
9.66254
8.9081
8.16983
7.44284
6.72354
6.00937
5.29854
4.58982
3.88238
3.17569
2.46943
1.7634
1.05757
0.352058
35.0156
34.6771
34.2441
33.7246
33.1284
32.4626
31.7295
30.9271
30.0493
29.0879
28.035
26.8859
25.643
24.3185
22.9349
21.5233
20.1189
18.7543
17.4544
16.2346
15.1001
14.0483
13.0715
12.1589
11.299
10.4809
9.69483
8.93283
8.1884
7.45655
6.7335
6.01651
5.30358
4.59333
3.88481
3.17736
2.47058
1.76422
1.05814
0.352279
35.128
34.7338
34.2644
33.7224
33.1124
32.4378
31.6988
30.8925
30.0125
29.0508
27.9994
26.8539
25.6162
24.298
22.9218
21.5186
20.1232
18.7674
17.4755
16.2618
15.1309
14.0803
13.1025
12.1873
11.324
10.502
9.71222
8.94677
8.19933
7.46496
6.73987
6.02125
5.30707
4.59587
3.88664
3.17867
2.47152
1.76487
1.05853
0.352358
35.2961
34.8417