# vtk DataFile Version 2.0
I need something to put here
ASCII

DATASET STRUCTURED_GRID
DIMENSIONS 41 21 21
POINTS 18081 float
0.000000 0.000000 0.000000
0.100000 0.000000 0.000000
0.200000 0.000000 0.000000
0.300000 0.000000 0.000000
0.400000 0.000000 0.000000
0.500000 0.000000 0.000000
0.600000 0.000000 0.000000
0.700000 0.000000 0.000000
0.800000 0.000000 0.000000
0.900000 0.000000 0.000000
1.000000 0.000000 0.000000
1.100000 0.000000 0.000000
1.200000 0.000000 0.000000
1.300000 0.000000 0.000000
1.400000 0.000000 0.000000
1.500000 0.000000 0.000000
1.600000 0.000000 0.000000
1.700000 0.000000 0.000000
1.800000 0.000000 0.000000
1.900000 0.000000 0.000000
2.000000 0.000000 0.000000
2.100000 0.000000 0.000000
2.200000 0.000000 0.000000
2.300000 0.000000 0.000000
2.400000 0.000000 0.000000
2.500000 0.000000 0.000000
2.600000 0.000000 0.000000
2.700000 0.000000 0.000000
2.800000 0.000000 0.000000
2.900000 0.000000 0.000000
3.000000 0.000000 0.000000
3.100000 0.000000 0.000000
3.200000 0.000000 0.000000
3.300000 0.000000 0.000000
3.400000 0.000000 0.000000
3.500000 0.000000 0.000000
3.600000 0.000000 0.000000
3.700000 0.000000 0.000000
3.800000 0.000000 0.000000
3.900000 0.000000 0.000000
4.000000 0.000000 0.000000
0.000000 0.100000 0.000000
0.100000 0.100000 0.000000
0.200000 0.100000 0.000000
0.300000 0.100000 0.000000
0.400000 0.100000 0.000000
0.500000 0.100000 0.000000
0.600000 0.100000 0.000000
0.700000 0.100000 0.000000
0.800000 0.100000 0.000000
0.900000 0.100000 0.000000
1.000000 0.100000 0.000000
1.100000 0.100000 0.000000
1.200000 0.100000 0.000000
1.300000 0.100000 0.000000
1.400000 0.100000 0.000000
1.500000 0.100000 0.000000
1.600000 0.100000 0.000000
1.700000 0.100000 0.000000
1.800000 0.100000 0.000000
1.900000 0.100000 0.000000
2.000000 0.100000 0.000000
2.100000 0.100000 0.000000
2.200000 0.100000 0.000000
2.300000 0.100000 0.000000
2.400000 0.100000 0.000000
2.500000 0.100000 0.000000
2.600000 0.100000 0.000000
2.700000 0.100000 0.000000
2.800000 0.100000 0.000000
2.900000 0.100000 0.000000
3.000000 0.100000 0.000000
3.100000 0.100000 0.000000
3.200000 0.100000 0.000000
3.300000 0.100000 0.000000
3.400000 0.100000 0.000000
3.500000 0.100000 0.000000
3.600000 0.100000 0.000000
3.700000 0.100000 0.000000
3.800000 0.100000 0.000000
3.900000 0.100000 0.000000
4.000000 0.100000 0.000000
0.000000 0.200000 0.000000
0.100000 0.200000 0.000000
0.200000 0.200000 0.000000
0.300000 0.200000 0.000000
0.400000 0.200000 0.000000
0.500000 0.200000 0.000000
0.600000 0.200000 0.000000
0.700000 0.200000 0.000000
0.800000 0.200000 0.000000
0.900000 0.200000 0.000000
1.000000 0.200000 0.000000
1.100000 0.200000 0.000000
1.200000 0.200000 0.000000
1.300000 0.200000 0.000000
1.400000 0.200000 0.000000
1.500000 0.200000 0.000000
1.600000 0.200000 0.000000
1.700000 0.200000 0.000000
1.800000 0.200000 0.000000
1.900000 0.200000 0.000000
2.000000 0.200000 0.000000
2.100000 0.200000 0.000000
2.200000 0.200000 0.000000
2.300000 0.200000 0.000000
2.400000 0.200000 0.000000
2.500000 0.200000 0.000000
2.600000 0.200000 0.000000
2.700000 0.200000 0.000000
2.800000 0.200000 0.000000
2.900000 0.200000 0.000000
3.000000 0.200000 0.000000
3.100000 0.200000 0.000000
3.200000 0.200000 0.000000
3.300000 0.200000 0.000000
3.400000 0.200000 0.000000
3.500000 0.200000 0.000000
3.600000 0.200000 0.000000
3.700000 0.200000 0.000000
3.800000 0.200000 0.000000
3.900000 0.200000 0.000000
4.000000 0.200000 0.000000
0.000000 0.300000 0.000000
0.100000 0.300000 0.000000
0.200000 0.300000 0.000000
0.300000 0.300000 0.000000
0.400000 0.300000 0.000000
0.500000 0.300000 0.000000
0.600000 0.300000 0.000000
0.700000 0.300000 0.000000
0.800000 0.300000 0.000000
0.900000 0.300000 0.000000
1.000000 0.300000 0.000000
1.100000 0.300000 0.000000
1.200000 0.300000 0.000000
1.300000 0.300000 0.000000
1.400000 0.300000 0.000000
1.500000 0.300000 0.000000
1.600000 0.300000 0.000000
1.700000 0.300000 0.000000
1.800000 0.300000 0.000000
1.900000 0.300000 0.000000
2.000000 0.300000 0.000000
2.100000 0.300000 0.000000
2.200000 0.300000 0.000000
2.300000 0.300000 0.000000
2.400000 0.300000 0.000000
2.500000 0.300000 0.000000
2.600000 0.300000 0.000000
2.700000 0.300000 0.000000
2.800000 0.300000 0.000000
2.900000 0.300000 0.000000
3.000000 0.300000 0.000000
3.100000 0.300000 0.000000
3.200000 0.300000 0.000000
3.300000 0.300000 0.000000
3.400000 0.300000 0.000000
3.500000 0.300000 0.000000
3.600000 0.300000 0.000000
3.700000 0.300000 0.000000
3.800000 0.300000 0.000000
3.900000 0.300000 0.000000
4.000000 0.300000 0.000000
0.000000 0.400000 0.000000
0.100000 0.400000 0.000000
0.200000 0.400000 0.000000
0.300000 0.400000 0.000000
0.400000 0.400000 0.000000
0.500000 0.400000 0.000000
0.600000 0.400000 0.000000
0.700000 0.400000 0.000000
0.800000 0.400000 0.000000
0.900000 0.400000 0.000000
1.000000 0.400000 0.000000
1.100000 0.400000 0.000000
1.200000 0.400000 0.000000
1.300000 0.400000 0.000000
1.400000 0.400000 0.000000
1.500000 0.400000 0.000000
1.600000 0.400000 0.000000
1.700000 0.400000 0.000000
1.800000 0.400000 0.000000
1.900000 0.400000 0.000000
2.000000 0.400000 0.000000
2.100000 0.400000 0.000000
2.200000 0.400000 0.000000
2.300000 0.400000 0.000000
2.400000 0.400000 0.000000
2.500000 0.400000 0.000000
2.600000 0.400000 0.000000
2.700000 0.400000 0.000000
2.800000 0.400000 0.000000
2.900000 0.400000 0.000000
3.000000 0.400000 0.000000
3.100000 0.400000 0.000000
3.200000 0.400000 0.000000
3.300000 0.400000 0.000000
3.400000 0.400000 0.000000
3.500000 0.400000 0.000000
3.600000 0.400000 0.000000
3.700000 0.400000 0.000000
3.800000 0.400000 0.000000
3.900000 0.400000 0.000000
4.000000 0.400000 0.000000
0.000000 0.500000 0.000000
0.100000 0.500000 0.000000
0.200000 0.500000 0.000000
0.300000 0.500000 0.000000
0.400000 0.500000 0.000000
0.500000 0.500000 0.000000
0.600000 0.500000 0.000000
0.700000 0.500000 0.000000
0.800000 0.500000 0.000000
0.900000 0.500000 0.000000
1.000000 0.500000 0.000000
1.100000 0.500000 0.000000
1.200000 0.500000 0.000000
1.300000 0.500000 0.000000
1.400000 0.500000 0.000000
1.500000 0.500000 0.000000
1.600000 0.500000 0.000000
1.700000 0.500000 0.000000
1.800000 0.500000 0.000000
1.900000 0.500000 0.000000
2.000000 0.500000 0.000000
2.100000 0.500000 0.000000
2.200000 0.500000 0.000000
2.300000 0.500000 0.000000
2.400000 0.500000 0.000000
2.500000 0.500000 0.000000
2.600000 0.500000 0.000000
2.700000 0.500000 0.000000
2.800000 0.500000 0.000000
2.900000 0.500000 0.000000
3.000000 0.500000 0.000000
3.100000 0.500000 0.000000
3.200000 0.500000 0.000000
3.300000 0.500000 0.000000
3.400000 0.500000 0.000000
3.500000 0.500000 0.000000
3.600000 0.500000 0.000000
3.700000 0.500000 0.000000
3.800000 0.500000 0.000000
3.900000 0.500000 0.000000
4.000000 0.500000 0.000000
0.000000 0.600000 0.000000
0.100000 0.600000 0.000000
0.200000 0.600000 0.000000
0.300000 0.600000 0.000000
0.400000 0.600000 0.000000
0.500000 0.600000 0.000000
0.600000 0.600000 0.000000
0.700000 0.600000 0.000000
0.800000 0.600000 0.000000
0.900000 0.600000 0.000000
1.000000 0.600000 0.000000
1.100000 0.600000 0.000000
1.200000 0.600000 0.000000
1.300000 0.600000 0.000000
1.400000 0.600000 0.000000
1.500000 0.600000 0.000000
1.600000 0.600000 0.000000
1.700000 0.600000 0.000000
1.800000 0.600000 0.000000
1.900000 0.600000 0.000000
2.000000 0.600000 0.000000
2.100000 0.600000 0.000000
2.200000 0.600000 0.000000
2.300000 0.600000 0.000000
2.400000 0.600000 0.000000
2.500000 0.600000 0.000000
2.600000 0.600000 0.000000
2.700000 0.600000 0.000000
2.800000 0.600000 0.000000
2.900000 0.600000 0.000000
3.000000 0.600000 0.000000
3.100000 0.600000 0.000000
3.200000 0.600000 0.000000
3.300000 0.600000 0.000000
3.400000 0.600000 0.000000
3.500000 0.600000 0.000000
3.600000 0.600000 0.000000
3.700000 0.600000 0.000000
3.800000 0.600000 0.000000
3.900000 0.600000 0.000000
4.000000 0.600000 0.000000
0.000000 0.700000 0.000000
0.100000 0.700000 0.000000
0.200000 0.700000 0.000000
0.300000 0.700000 0.000000
0.400000 0.700000 0.000000
0.500000 0.700000 0.000000
0.600000 0.700000 0.000000
0.700000 0.700000 0.000000
0.800000 0.700000 0.000000
0.900000 0.700000 0.000000
1.000000 0.700000 0.000000
1.100000 0.700000 0.000000
1.200000 0.700000 0.000000
1.300000 0.700000 0.000000
1.400000 0.700000 0.000000
1.500000 0.700000 0.000000
1.600000 0.700000 0.000000
1.700000 0.700000 0.000000
1.800000 0.700000 0.000000
1.900000 0.700000 0.000000
2.000000 0.700000 0.000000
2.100000 0.700000 0.000000
2.200000 0.700000 0.000000
2.300000 0.700000 0.000000
2.400000 0.700000 0.000000
2.500000 0.700000 0.000000
2.600000 0.700000 0.000000
2.700000 0.700000 0.000000
2.800000 0.700000 0.000000
2.900000 0.700000 0.000000
3.000000 0.700000 0.000000
3.100000 0.700000 0.000000
3.200000 0.700000 0.000000
3.300000 0.700000 0.000000
3.400000 0.700000 0.000000
3.500000 0.700000 0.000000
3.600000 0.700000 0.000000
3.700000 0.700000 0.000000
3.800000 0.700000 0.000000
3.900000 0.700000 0.000000
4.000000 0.700000 0.000000
0.000000 0.800000 0.000000
0.100000 0.800000 0.000000
0.200000 0.800000 0.000000
0.300000 0.800000 0.000000
0.400000 0.800000 0.000000
0.500000 0.800000 0.000000
0.600000 0.800000 0.000000
0.700000 0.800000 0.000000
0.800000 0.800000 0.000000
0.900000 0.800000 0.000000
1.000000 0.800000 0.000000
1.100000 0.800000 0.000000
1.200000 0.800000 0.000000
1.300000 0.800000 0.000000
1.400000 0.800000 0.000000
1.500000 0.800000 0.000000
1.600000 0.800000 0.000000
1.700000 0.800000 0.000000
1.800000 0.800000 0.000000
1.900000 0.800000 0.000000
2.000000 0.800000 0.000000
2.100000 0.800000 0.000000
2.200000 0.800000 0.000000
2.300000 0.800000 0.000000
2.400000 0.800000 0.000000
2.500000 0.800000 0.000000
2.600000 0.800000 0.000000
2.700000 0.800000 0.000000
2.800000 0.800000 0.000000
2.900000 0.800000 0.000000
3.000000 0.800000 0.000000
3.100000 0.800000 0.000000
3.200000 0.800000 0.000000
3.300000 0.800000 0.000000
3.400000 0.800000 0.000000
3.500000 0.800000 0.000000
3.600000 0.800000 0.000000
[...]
CELL_DATA 16000
SCALARS pressure float 1
LOOKUP_TABLE default
34.6491
34.4723
34.1353
33.6716
33.1072
32.4581
31.7323
30.9307
30.0497
29.0833
28.0255
26.874
25.633
24.3152
22.9422
21.5425
20.1481
18.7891
17.4898
16.266
15.1247
14.0652
13.081
12.1623
11.2979
10.4768
9.68921
8.92665
8.18234
7.45101
6.72869
6.01248
5.30031
4.59074
3.88279
3.17582
2.46943
1.7634
1.05766
0.352285
34.7048
34.5024
34.1514
33.6802
33.1116
32.4604
31.7336
30.932
30.0515
29.0857
28.0286
26.8775
25.6362
24.3175
22.943
21.5417
20.1457
18.7857
17.486
16.2625
15.1219
14.0632
13.0798
12.1618
11.2979
10.4772
9.68984
8.92736
8.18304
7.45165
6.72925
6.01295
5.30069
4.59104
3.88302
3.176
2.46956
1.76349
1.05769
0.352237
34.825
34.586
34.2109
33.7242
33.1467
32.4914
31.7641
30.9644
30.0871
29.1246
28.0692
26.9167
25.6699
24.3413
22.9536
21.5375
20.1278
18.7571
17.4509
16.2251
15.0859
14.0309
13.0526
12.1399
11.281
10.4646
9.68074
8.92099
8.17872
7.44882
6.72745
6.01186
5.30006
4.59071
3.88287
3.17594
2.46955
1.76347
1.05764
0.352139
34.9881
34.7068
34.3018
33.7955
33.2068
32.5469
31.8203
31.0251
30.1542
29.1977
28.1452
26.9898
25.7323
24.3849
22.972
21.5282
20.0928
18.7023
17.3842
16.1545
15.0178
13.9699
13.0009
12.0981
11.2485
10.4402
9.66296
8.90838
8.17001
7.44295
6.72361
6.00941
5.29856
4.58983
3.88238
3.17569
2.46942
1.76339
1.05756
0.352053
35.1729
34.8495
34.413
33.8858
33.2854
32.6218
31.8979
31.1101
30.2491
29.3016
28.2535
27.094
25.821
24.4462
22.9967
21.5127
20.0403
18.6217
17.2871
16.0525
14.9203
13.8831
12.9277
12.0391
11.2028
10.4059
9.63792
8.89059
8.15768
7.43461
6.7181
6.00588
5.29636
4.58851
3.88162
3.17528
2.46921
1.76328
1.05748
0.352
35.3601
34.9985
34.5324
33.9853
33.3744
32.7086
31.9897
31.2121
30.364
29.4283
28.3864
27.2223
25.9303
24.5212
23.0258
21.4914
19.973
18.5198
17.1658
15.9264
14.8007
13.7773
12.839
11.9681
11.148
10.3649
9.60809
8.86944
8.14303
7.42469
6.71155
6.00166
5.29372
4.58691
3.8807
3.17477
2.46894
1.76315
1.05742
0.351982
35.5327
35.139
34.6473
34.0833
33.4639
32.7978
32.0854
31.3198
30.4864
29.5645
28.5301
27.3619
26.0497
24.6031
23.0567
21.4662
19.8972
18.4068
17.0325
15.789
14.6716
13.664
12.7448
11.8931
11.0903
10.322
9.57697
8.84742
8.12781
7.41441
6.70476
5.99728
5.29098
4.58525
3.87973
3.17424
2.46867
1.76302
1.05738
0.351992
35.676
35.2576
34.746
34.1687
33.5434
32.8781
32.1729
31.4193
30.6006
29.6925
28.6662
27.495
26.1639
24.6815
23.0858
21.441
19.8231
18.2975
16.9049
15.6586
14.5501
13.5581
12.6574
11.8238
11.0374
10.2827
9.54862
8.82742
8.11401
7.4051
6.69861
5.99332
5.2885
4.58374
3.87886
3.17376
2.46843
1.76292
1.05736
0.352018
35.7785
35.3432
34.818
34.2319
33.6028
32.939
32.2398
31.496
30.6892
29.7926
28.7734
27.6005
26.255
24.7441
23.1088
21.4202
19.7633
18.2099
16.8035
15.5559
14.455
13.4759
12.5898
11.7706
10.9969
10.2527
9.52703
8.81223
8.10355
7.39805
6.69397
5.99033
5.28663
4.58261
3.8782
3.1734
2.46825
1.76285
1.05735
0.352045
35.8318
35.3881
34.8561
34.2655
33.6347
32.9717
32.2761
31.5378
30.7378
29.8477
28.8327
27.6591
26.3058
24.7791
23.1216
21.4084
19.7297
18.1611
16.7471
15.4991
14.4027
13.4308
12.5529
11.7416
10.9749
10.2366
9.51539
8.80405
8.09794
7.39427
6.69149
5.98874
5.28563
4.58201
3.87785
3.17321
2.46816
1.76281
1.05735
0.352062
35.8318
35.3881
34.8561
34.2655
33.6347
32.9718
32.2761
31.5378
30.7378
29.8477
28.8327
27.6591
26.3058
24.779
23.1216
21.4085
19.7298
18.1611
16.7473
15.4992
14.4029
13.431
12.5531
11.7418
10.975
10.2367
9.51548
8.80413
8.098
7.39432
6.69153
5.98877
5.28566
4.58203
3.87787
3.17322
2.46816
1.76282
1.05735
0.352063
35.7785
35.3433
34.8181
34.232
33.6029
32.939
32.2399
31.4961
30.6893
29.7926
28.7735
27.6005
26.255
24.744
23.1088
21.4203
19.7634
18.2102
16.8038
15.5563
14.4554
13.4763
12.5902
11.771
10.9972
10.253
9.52728
8.81244
8.10373
7.39819
6.69408
5.99042
5.2867
4.58266
3.87824
3.17342
2.46827
1.76286
1.05735
0.352047
35.6761
35.2577
34.7461
34.1688
33.5435
32.8782
32.173
31.4194
30.6007
29.6926
28.6663
27.495
26.1639
24.6814
23.0858
21.4411
19.8233
18.2979
16.9054
15.6593
14.5508
13.5588
12.6581
11.8244
11.038
10.2832
9.54902
8.82776
8.11429
7.40532
6.69879
5.99346
5.28861
4.58382
3.87892
3.1738
2.46846
1.76294
1.05737
0.352021
35.5328
35.1392
34.6475
34.0834
33.4641
32.7979
32.0856
31.32
30.4866
29.5647
28.5302
27.362
26.0496
24.603
23.0567
21.4664
19.8975
18.4073
17.0332
15.7898
14.6725
13.6648
12.7457
11.8938
11.091
10.3226
9.57751
8.84787
8.12818
7.41471
6.705
5.99746
5.29112
4.58535
3.87981
3.17429
2.4687
1.76304
1.05739
0.351996
35.3603
34.9987
34.5325
33.9855
33.3746
32.7088
31.9899
31.2123
30.3641
29.4285
28.3865
27.2223
25.9303
24.5213
23.0259
21.4916
19.9734
18.5205
17.1667
15.9273
14.8017
13.7783
12.8401
11.969
11.1488
10.3656
9.60873
8.86997
8.14347
7.42505
6.71184
6.00188
5.29389
4.58703
3.88079
3.17483
2.46898
1.76317
1.05743
0.351986
35.173
34.8497
34.4132
33.886
33.2855
32.622
31.8981
31.1103
30.2493
29.3018
28.2537
27.0941
25.8211
24.4463
22.9969
21.5131
20.0409
18.6224
17.288
16.0536
14.9215
13.8842
12.9288
12.0401
11.2037
10.4067
9.63862
8.89118
8.15817
7.435
6.71842
6.00612
5.29655
4.58864
3.88172
3.17534
2.46925
1.7633
1.05749
0.352004
34.9883
34.707
34.302
33.7957
33.2069
32.5471
31.8205
31.0252
30.1544
29.1979
28.1453
26.9899
25.7324
24.385
22.9722
21.5286
20.0934
18.7031
17.3852
16.1556
15.019
13.9712
13.0021
12.0992
11.2495
10.4411
9.6637
8.909
8.17052
7.44336
6.72393
6.00966
5.29875
4.58996
3.88248
3.17575
2.46946
1.76341
1.05757
0.352055
34.8252
34.5862
34.2111
33.7245
33.1469
32.4916
31.7643
30.9646
30.0873
29.1247
28.0693
26.9168
25.67
24.3415
22.9539
21.538
20.1285
18.758
17.4519
16.2263
15.0871
14.0322
13.0537
12.141
11.282
10.4655
9.68149
8.92162
8.17924
7.44923
6.72777
6.0121
5.30025
4.59084
3.88296
3.176
2.46958
1.76349
1.05765
0.352139
34.705
34.5026
34.1517
33.6804
33.1118
32.4606
31.7338
30.9322
30.0517
29.0859
28.0287
26.8776
25.6364
24.3177
22.9434
21.5422
20.1464
18.7866
17.487
16.2636
15.1231
14.0644
13.081
12.1629
11.2989
10.4781
9.69057
8.92796
8.18353
7.45205
6.72956
6.01318
5.30086
4.59116
3.8831
3.17605
2.46959
1.7635
1.05769
0.352235
34.6493
34.4725
34.1355
33.6718
33.1074
32.4583
31.7325
30.9309
30.0499
29.0834
28.0256
26.8742
25.6332
24.3154
22.9425
21.543
20.1488
18.79
17.4908
16.2671
15.1259
14.0664
13.0821
12.1633
11.2988
10.4776
9.68991
8.92723
8.18281
7.45138
6.72898
6.0127
5.30047
4.59085
3.88286
3.17586
2.46945
1.7634
1.05766
0.352279
34.7048
34.5024
34.1514
33.6802
33.1116
32.4604
31.7336
30.932
30.0515
29.0857
28.0286
26.8774
25.6362
24.3175
22.943
21.5417
20.1457
18.7857
17.486
16.2625
15.1219
14.0632
13.0798
12.1618
11.2979
10.4773
9.68985
8.92736
8.18304
7.45165
6.72925
6.01295
5.30069
4.59104
3.88302
3.176
2.46956
1.76349
1.0577
0.352237
34.7484
34.5077
34.1379
33.6579
33.085
32.431
31.7019
30.8979
30.0152
29.0482
27.9914
26.843
25.6072
24.2966
22.9322
21.542
20.1568
18.8059
17.5129
16.2933
15.1539
14.0942
13.1082
12.1867
11.319
10.4944
9.70354
8.93801
8.19115
7.45772
6.73371
6.01618
5.30299
4.59266
3.88415
3.17678
2.4701
1.76387
1.05795
0.352311
34.8646
34.5779
34.1793
33.6818
33.0987
32.4392
31.7075
30.903
30.0211
29.0554
27.9998
26.8517
25.6148
24.3015
22.9333
21.5387
20.1497
18.7964
17.5026
16.2836
15.1459
14.0883
13.1045
12.1848
11.3185
10.495
9.70469
8.93945
8.19266
7.45916
6.73499
6.01727
5.3039
4.59339
3.88472
3.17722
2.47044
1.7641
1.05808
0.352293
35.0308
34.6923
34.2593
33.7398
33.1435
32.4775
31.7441
30.9412
30.0628
29.1007
28.0469
26.8969
25.653
24.3275
22.9429
21.5305
20.1252
18.7597
17.459
16.2383
15.1031
14.0507
13.0733
12.1602
11.3
10.4816
9.69532
8.93317
8.18863
7.4567
6.7336
6.01656
5.30361
4.59335
3.88481
3.17736
2.47058
1.76422
1.05814
0.352277
35.2225
34.8322
34.3636
33.8206
33.2105
32.5383
31.8047
31.0059
30.1337
29.1774
28.1262
26.9726
25.7167
24.3705
22.9587
21.5165
20.0842
18.6984
17.3862
16.1625
15.0311
13.9869
13.0198
12.1174
11.267
10.457
9.67765
8.92082
8.18025
7.45119
6.7301
6.01444
5.30239
4.5927
3.88451
3.17726
2.47058
1.76425
1.05817
0.352287
35.418
34.9802
34.4781
33.9128
33.29
32.6129
31.8809
31.0883
30.2247
29.2764
28.2288
27.0706
25.7992
24.4259
22.9784
21.4973
20.0298
18.6181
17.2914
16.0643
14.9381
13.9047
12.9509
12.0621
11.2243
10.4252
9.65455
8.90452
8.16905
7.4437
6.72523
6.01137
5.30054
4.59164
3.88395
3.177
2.47048
1.76424
1.05819
0.352327
35.5984
35.1203
34.5893
34.0048
33.3713
32.6912
31.9622
31.1773
30.3239
29.3849
28.342
27.1793
25.8911
24.4877
22.9998
21.4747
19.968
18.5276
17.1857
15.9557
14.836
13.8148
12.8759
12.0022
11.1781
10.3907
9.62949
8.88679
8.15682
7.43546
6.71983
6.00794
5.29842
4.59039
3.88326
3.17665
2.47033
1.7642
1.05821
0.352387
35.7483
35.2388
34.6851
34.0856
33.4441
32.7623
32.0372
31.2604
30.4171
29.4878
28.45
27.2838
25.9798
24.5474
23.0202
21.4522
19.9073
18.4397
17.0839
15.852
14.7393
13.7303
12.8058
11.9464
11.1352
10.3586
9.60625
8.87034
8.14546
7.4278
6.7148
6.00471
5.29643
4.58921
3.88259
3.1763
2.47018
1.76415
1.05823
0.352454
35.8553
35.3245
34.7551
34.1454
33.4987
32.8163
32.0948
31.3246
30.4898
29.5685
28.5354
27.367
26.051
24.5955
23.0364
21.4337
19.8581
18.3692
17.0028
15.7702
14.6634
13.6644
12.7513
11.9032
11.1021
10.334
9.58841
8.85773
8.13675
7.42193
6.71093
6.00224
5.29489
4.58829
3.88207
3.17603
2.47006
1.76412
1.05824
0.35251
35.9111
35.3693
34.7921
34.1772
33.5279
32.8455
32.126
31.3597
30.5297
29.613
28.5826
27.4133
26.0907
24.6225
23.0456
21.4231
19.8304
18.3297
16.9578
15.7249
14.6218
13.6284
12.7216
11.8797
11.0842
10.3207
9.57877
8.85092
8.13205
7.41876
6.70885
6.0009
5.29406
4.58779
3.88179
3.17588
2.46999
1.7641
1.05825
0.352542
35.9111
35.3694
34.7921
34.1772
33.528
32.8455
32.1261
31.3597
30.5297
29.613
28.5826
27.4133
26.0907
24.6225
23.0456
21.4232
19.8305
18.3298
16.9579
15.7251
14.6219
13.6285
12.7218
11.8798
11.0843
10.3208
9.57885
8.85099
8.13211
7.41881
6.70888
6.00093
5.29408
4.58781
3.8818
3.17589
2.47
1.7641
1.05826
0.352541
35.8554
35.3245
34.7552
34.1454
33.4987
32.8164
32.0949
31.3247
30.4899
29.5686
28.5354
27.367
26.0509
24.5955
23.0365
21.4337
19.8583
18.3694
17.0032
15.7705
14.6638
13.6648
12.7517
11.9035
11.1024
10.3343
9.58865
8.85793
8.13691
7.42206
6.71104
6.00232
5.29495
4.58834
3.8821
3.17605
2.47007
1.76413
1.05825
0.352509
35.7484
35.2389
34.6852
34.0857
33.4442
32.7624
32.0374
31.2605
30.4172
29.4879
28.4501
27.2839
25.9798
24.5474
23.0202
21.4523
19.9075
18.4401
17.0843
15.8526
14.7399
13.7309
12.8064
11.9469
11.1357
10.3591
9.60663
8.87066
8.14572
7.42802
6.71497
6.00485
5.29653
4.58928
3.88265
3.17634
2.4702
1.76417
1.05823
0.352453
35.5986
35.1205
34.5894
34.005
33.3715
32.6913
31.9624
31.1775
30.324
29.3851
28.3421
27.1794
25.8911
24.4877
22.9999
21.475
19.9683
18.5281
17.1863
15.9564
14.8368
13.8156
12.8767
12.0029
11.1788
10.3912
9.62999
8.88721
8.15717
7.43575
6.72006
6.00812
5.29856
4.5905
3.88333
3.1767
2.47037
1.76421
1.05821
0.352386
35.4181
34.9803
34.4782
33.913
33.2901
32.6131
31.8811
31.0885
30.2248
29.2765
28.2289
27.0707
25.7992
24.426
22.9785
21.4976
20.0303
18.6187
17.2922
16.0652
14.939
13.9056
12.9518
12.063
11.2251
10.4259
9.65514
8.90502
8.16947
7.44403
6.7255
6.01158
5.3007
4.59176
3.88404
3.17706
2.47052
1.76425
1.05819
0.352325
35.2227
34.8324
34.3638
33.8208
33.2107
32.5385
31.8049
31.0061
30.1339
29.1776
28.1264
26.9727
25.7168
24.3706
22.9589
21.5168
20.0847
18.6991
17.3871
16.1635
15.0321
13.9879
13.0208
12.1183
11.2678
10.4578
9.67831
8.92138
8.18072
7.45157
6.7304
6.01467
5.30256
4.59283
3.88461
3.17733
2.47062
1.76427
1.05817
0.352284
35.031
34.6925
34.2595
33.74
33.1437
32.4777
31.7443
30.9414
30.063
29.1009
28.0471
26.8971
25.6532
24.3277
22.9432
21.5309
20.1258
18.7605
17.4599
16.2394
15.1042
14.0518
13.0744
12.1612
11.3009
10.4824
9.69601
8.93375
8.18912
7.45709
6.73391
6.01681
5.3038
4.59348
3.88491
3.17742
2.47062
1.76423
1.05814
0.352274
34.8649
34.5781
34.1795
33.682
33.0989
32.4394
31.7077
30.9032
30.0213
29.0556
28
26.8518
25.615
24.3017
22.9336
21.5392
20.1504
18.7973
17.5036
16.2847
15.147
14.0895
13.1056
12.1858
11.3194
10.4958
9.7054
8.94005
8.19315
7.45955
6.73531
6.01751
5.30408
4.59352
3.88481
3.17728
2.47047
1.76411
1.05808
0.35229
34.7486
34.5079
34.1381
33.6581
33.0852
32.4313
31.7021
30.8981
30.0154
29.0484
27.9916
26.8431
25.6074
24.2968
22.9326
21.5425
20.1574
18.8068
17.5139
16.2944
15.155
14.0953
13.1093
12.1877
11.3199
10.4953
9.70423
8.93859
8.19163
7.4581
6.73401
6.0164
5.30316
4.59278
3.88423
3.17683
2.47013
1.76388
1.05795
0.352306
34.705
34.5026
34.1517
33.6804
33.1118
32.4606
31.7339
30.9322
30.0517
29.0859
28.0288
26.8776
25.6364
24.3177
22.9434
21.5422
20.1464
18.7866
17.487
16.2635
15.123
14.0643
13.0809
12.1628
11.2988
10.478
9.69052
8.92792
8.18349
7.45201
6.72953
6.01316
5.30084
4.59115
3.88309
3.17603
2.46958
1.76349
1.05768
0.352228
34.825
34.586
34.2109
33.7242
33.1467
32.4914
31.7641
30.9644
30.0871
29.1245
28.0691
26.9166
25.6698
24.3413
22.9535
21.5375
20.1278
18.7571
17.4509
16.2252
15.0859
14.031
13.0526
12.1399
11.281
10.4646
9.68076
8.921
8.17873
7.44882
6.72746
6.01186
5.30007
4.59071
3.88287
3.17594
2.46955
1.76347
1.05764
0.352139
34.8646
34.5779
34.1793
33.6818
33.0987
32.4392
31.7075
30.903
30.0211
29.0554
27.9998
26.8516
25.6147
24.3015
22.9333
21.5387
20.1497
18.7964
17.5027
16.2837
15.1459
14.0883
13.1045
12.1848
11.3185
10.495
9.7047
8.93946
8.19267
7.45916
6.735
6.01727
5.3039
4.59339
3.88472
3.17722
2.47044
1.7641
1.05808
0.352294
34.9767
34.6392
34.2078
33.6904
33.0953
32.4286
31.6927
30.8858
30.0029
29.0374
27.9831
26.837
25.6026
24.2921
22.9269
21.5355
20.1502
18.8008
17.5109
16.2953
15.16
14.1037
13.12
12.1997
11.332
10.5068
9.7147
8.94769
8.19929
7.46437
6.73902
6.02034
5.3062
4.59509
3.88597
3.17813
2.47109
1.76456
1.05835
0.352325
35.1431
34.749
34.2796
33.7375
33.1274
32.4526
31.7133
30.9065
30.026
29.0635
28.0114
26.8648
25.6261
24.307
22.9299
21.5258
20.1294
18.7728
17.4801
16.2656
15.134
14.0827
13.1044
12.1887
11.325
10.5028
9.71275
8.94714
8.19959
7.46513
6.73998
6.02132
5.30711
4.5959
3.88665
3.17868
2.47152
1.76487
1.05853
0.352356
35.3393
34.8879
34.379
33.811
33.1852
32.5026
31.7617
30.9577
30.0825
29.1257
28.0767
26.9278
25.6789
24.3411
22.9391
21.5083
20.0885
18.7157
17.4153
16.2008
15.0748
14.0322
13.0635
12.1572
11.3017
10.4862
9.70138
8.93967
8.1949
7.46237
6.73849
6.02064
5.30692
4.59597
3.88686
3.17893
2.47177
1.76507
1.05867
0.352419
35.5419
35.0371
34.491
33.8983
33.258
32.5691
31.8286
31.0299
30.1628
29.2141
28.1695
27.0174
25.7541
24.39
22.9525
21.4834
20.0305
18.635
17.3242
16.1099
14.9915
13.9607
13.0052
12.1117
11.2674
10.4611
9.6837
8.92755
8.18686
7.45721
6.73533
6.01881
5.30594
4.59552
3.88672
3.17897
2.47187
1.7652
1.05879
0.352517
35.7302
35.1796
34.6011
33.9871
33.3346
32.6413
31.9029
31.1113
30.2543
29.3157
28.2772
27.1222
25.8428
24.4479
22.9681
21.4535
19.9615
18.54
17.2181
16.005
14.8963
13.8794
12.939
12.0599
11.2282
10.4325
9.66326
8.91337
8.17729
7.45095
6.73136
6.01639
5.30455
4.59479
3.88639
3.17886
2.4719
1.76528
1.05889
0.352636
35.8873
35.3006
34.6966
34.0657
33.404
32.7082
31.9729
31.189
30.3426
29.4148
28.3833
27.2268
25.9324
24.5069
22.9839
21.4225
19.891
18.4443
17.1127
15.9023
14.804
13.8012
12.8757
12.0105
11.191
10.4051
9.64373
8.89977
8.16806
7.44485
6.72745
6.01398
5.30313
4.594
3.886
3.17871
2.47187
1.76533
1.05898
0.352755
35.9998
35.3883
34.7667
34.1243
33.4565
32.7595
32.0273
31.25
30.4126
29.4941
28.4693
27.3126
26.007
24.5566
22.9972
21.3962
19.8317
18.3651
17.0268
15.8197
14.7305
13.7394
12.826
11.972
11.1619
10.3838
9.62852
8.88917
8.16085
7.44007
6.72437
6.01206
5.30198
4.59336
3.88566
3.17857
2.47184
1.76536
1.05905
0.35285
36.0584
35.4344
34.8037
34.1555
33.4847
32.7872
32.057
31.2835
30.4512
29.5382
28.5175
27.3613
26.0499
24.5855
23.005
21.3809
19.7973
18.3198
16.9783
15.7735
14.6898
13.7054
12.7988
11.9509
11.1461
10.3722
9.62025
8.88341
8.15693
7.43747
6.72269
6.01101
5.30136
4.593
3.88548
3.17849
2.47182
1.76538
1.05908
0.352903
36.0584
35.4344
34.8038
34.1555
33.4847
32.7873
32.057
31.2836
30.4513
29.5382
28.5175
27.3613
26.0499
24.5855
23.005
21.3809
19.7974
18.3199
16.9784
15.7737
14.6899
13.7056
12.7989
11.951
11.1462
10.3723
9.62033
8.88347
8.15699
7.43752
6.72273
6.01104
5.30138
4.59302
3.88549
3.17849
2.47183
1.76538
1.05908
0.352902
35.9999
35.3884
34.7668
34.1244
33.4565
32.7595
32.0274
31.2501
30.4126
29.4941
28.4693
27.3126
26.007
24.5565
22.9972
21.3963
19.8319
18.3654
17.0272
15.8201
14.7309
13.7398
12.8264
11.9723
11.1622
10.3841
9.62874
8.88936
8.16101
7.4402
6.72447
6.01214
5.30204
4.5934
3.8857
3.17859
2.47186
1.76537
1.05905
0.352848
35.8874
35.3007
34.6967
34.0658
33.4041
32.7083
31.973
31.1892
30.3427
29.4149
28.3834
27.2268
25.9324
24.5068
22.9839
21.4227
19.8912
18.4447
17.1132
15.9029
14.8046
13.8018
12.8763
12.0111
11.1914
10.4055
9.64409
8.90007
8.16832
7.44506
6.72761
6.01411
5.30323
4.59408
3.88605
3.17875
2.4719
1.76535
1.05898
0.352751
35.7304
35.1797
34.6013
33.9872
33.3347
32.6415
31.9031
31.1115
30.2545
29.3159
28.2773
27.1223
25.8428
24.4479
22.9682
21.4537
19.9619
18.5405
17.2187
16.0058
14.8971
13.8802
12.9398
12.0606
11.2289
10.433
9.66373
8.91377
8.17763
7.45122
6.73158
6.01657
5.30469
4.59489
3.88646
3.17891
2.47193
1.7653
1.0589
0.352631
35.542
35.0372
34.4911
33.8985
33.2581
32.5693
31.8288
31.0301
30.163
29.2143
28.1697
27.0175
25.7542
24.3901
22.9526
21.4837
20.031
18.6356
17.3249
16.1107
14.9924
13.9616
13.0061
12.1125
11.2681
10.4618
9.68427
8.92804
8.18726
7.45754
6.73559
6.01901
5.3061
4.59564
3.88681
3.17902
2.47191
1.76522
1.05879
0.352511
35.3395
34.8881
34.3792
33.8112
33.1854
32.5028
31.7619
30.958
30.0828
29.126
28.0769
26.928
25.679
24.3413
22.9394
21.5086
20.0891
18.7164
17.4162
16.2018
15.0758
14.0332
13.0645
12.1581
11.3025
10.4869
9.70202
8.94021
8.19535
7.46273
6.73878
6.02087
5.30709
4.5961
3.88695
3.17899
2.4718
1.76509
1.05867
0.352411
35.1433
34.7492
34.2798
33.7377
33.1276
32.4528
31.7135
30.9068
30.0262
29.0638
28.0115
26.865
25.6263
24.3072
22.9302
21.5262
20.13
18.7736
17.4811
16.2666
15.1351
14.0838
13.1054
12.1897
11.3259
10.5035
9.71342
8.94771
8.20006
7.46551
6.74028
6.02156
5.30729
4.59603
3.88674
3.17874
2.47156
1.76489
1.05853
0.352347
34.9769
34.6394
34.208
33.6906
33.0955
32.4288
31.6929
30.886
30.0031
29.0376
27.9833
26.8372
25.6028
24.2924
22.9272
21.536
20.1509
18.8017
17.5119
16.2964
15.1611
14.1048
13.1211
12.2007
11.3329
10.5076
9.71539
8.94827
8.19977
7.46475
6.73933
6.02057
5.30637
4.59521
3.88606
3.17818
2.47112
1.76457
1.05834
0.352315
34.8649
34.5781
34.1795
33.682
33.0989
32.4394
31.7077
30.9032
30.0213
29.0556
27.9999
26.8518
25.6149
24.3017
22.9336
21.5392
20.1504
18.7973
17.5037
16.2848
15.1471
14.0895
13.1056
12.1858
11.3194
10.4958
9.70538
8.94002
8.19313
7.45953
6.73528
6.01749
5.30406
4.5935
3.8848
3.17726
2.47046
1.76411
1.05807
0.352283
34.8252
34.5862
34.2111
33.7245
33.1469
32.4916
31.7643
30.9646
30.0873
29.1248
28.0693
26.9168
25.67
24.3415
22.9539
21.538
20.1285
18.758
17.4519
16.2263
15.0871
14.0321
13.0537
12.1409
11.2819
10.4654
9.6814
8.92154
8.17916
7.44916
6.72771
6.01205
5.3002
4.5908
3.88292
3.17597
2.46955
1.76346
1.05762
0.352123
34.9881
34.7068
34.3018
33.7955
33.2067
32.5469
31.8203
31.025
30.1541
29.1976
28.1451
26.9896
25.7322
24.3847
22.9719
21.5281
20.0928
18.7023
17.3842
16.1545
15.0179
13.97
13.001
12.0982
11.2486
10.4403
9.66299
8.9084
8.17002
7.44296
6.72361
6.00942
5.29857
4.58983
3.88238
3.17569
2.46942
1.76339
1.05756
0.352054
35.0308
34.6923
34.2593
33.7398
33.1435
32.4774
31.7441
30.9412
30.0628
29.1007
28.0468
26.8968
25.6529
24.3274
22.9429
21.5304
20.1252
18.7597
17.459
16.2384
15.1031
14.0507
13.0734
12.1603
11.3
10.4816
9.69534
8.93318
8.18864
7.4567
6.7336
6.01657
5.30362
4.59335
3.88481
3.17736
2.47058
1.76422
1.05814
0.352277
35.1431
34.749
34.2796
33.7375
33.1274
32.4526
31.7133
30.9065
30.0259
29.0635
28.0113
26.8648
25.6261
24.3069
22.9298
21.5257
20.1294
18.7728
17.4801
16.2656
15.134
14.0828
13.1044
12.1887
11.325
10.5028
9.71276
8.94715
8.19959
7.46513
6.73998
6.02132
5.30712
4.5959
3.88665
3.17868
2.47152
1.76487
1.05853
0.352356
35.3113
34.8569
34.3461