# vtk DataFile Version 2.0
I need something to put here
ASCII

DATASET STRUCTURED_GRID
DIMENSIONS 41 21 21
POINTS 18081 float
0.000000 0.000000 0.000000
0.100000 0.000000 0.000000
0.200000 0.000000 0.000000
0.300000 0.000000 0.000000
0.400000 0.000000 0.000000
0.500000 0.000000 0.000000
0.600000 0.000000 0.000000
0.700000 0.000000 0.000000
0.800000 0.000000 0.000000
0.900000 0.000000 0.000000
1.000000 0.000000 0.000000
1.100000 0.000000 0.000000
1.200000 0.000000 0.000000
1.300000 0.000000 0.000000
1.400000 0.000000 0.000000
1.500000 0.000000 0.000000
1.600000 0.000000 0.000000
1.700000 0.000000 0.000000
1.800000 0.000000 0.000000
1.900000 0.000000 0.000000
2.000000 0.000000 0.000000
2.100000 0.000000 0.000000
2.200000 0.000000 0.000000
2.300000 0.000000 0.000000
2.400000 0.000000 0.000000
2.500000 0.000000 0.000000
2.600000 0.000000 0.000000
2.700000 0.000000 0.000000
2.800000 0.000000 0.000000
2.900000 0.000000 0.000000
3.000000 0.000000 0.000000
3.100000 0.000000 0.000000
3.200000 0.000000 0.000000
3.300000 0.000000 0.000000
3.400000 0.000000 0.000000
3.500000 0.000000 0.000000
3.600000 0.000000 0.000000
3.700000 0.000000 0.000000
3.800000 0.000000 0.000000
3.900000 0.000000 0.000000
4.000000 0.000000 0.000000
0.000000 0.100000 0.000000
0.100000 0.100000 0.000000
0.200000 0.100000 0.000000
0.300000 0.100000 0.000000
0.400000 0.100000 0.000000
0.500000 0.100000 0.000000
0.600000 0.100000 0.000000
0.700000 0.100000 0.000000
0.800000 0.100000 0.000000
0.900000 0.100000 0.000000
1.000000 0.100000 0.000000
1.100000 0.100000 0.000000
1.200000 0.100000 0.000000
1.300000 0.100000 0.000000
1.400000 0.100000 0.000000
1.500000 0.100000 0.000000
1.600000 0.100000 0.000000
1.700000 0.100000 0.000000
1.800000 0.100000 0.000000
1.900000 0.100000 0.000000
2.000000 0.100000 0.000000
2.100000 0.100000 0.000000
2.200000 0.100000 0.000000
2.300000 0.100000 0.000000
2.400000 0.100000 0.000000
2.500000 0.100000 0.000000
2.600000 0.100000 0.000000
2.700000 0.100000 0.000000
2.800000 0.100000 0.000000
2.900000 0.100000 0.000000
3.000000 0.100000 0.000000
3.100000 0.100000 0.000000
3.200000 0.100000 0.000000
3.300000 0.100000 0.000000
3.400000 0.100000 0.000000
3.500000 0.100000 0.000000
3.600000 0.100000 0.000000
3.700000 0.100000 0.000000
3.800000 0.100000 0.000000
3.900000 0.100000 0.000000
4.000000 0.100000 0.000000
0.000000 0.200000 0.000000
0.100000 0.200000 0.000000
0.200000 0.200000 0.000000
0.300000 0.200000 0.000000
0.400000 0.200000 0.000000
0.500000 0.200000 0.000000
0.600000 0.200000 0.000000
0.700000 0.200000 0.000000
0.800000 0.200000 0.000000
0.900000 0.200000 0.000000
1.000000 0.200000 0.000000
1.100000 0.200000 0.000000
1.200000 0.200000 0.000000
1.300000 0.200000 0.000000
1.400000 0.200000 0.000000
1.500000 0.200000 0.000000
1.600000 0.200000 0.000000
1.700000 0.200000 0.000000
1.800000 0.200000 0.000000
1.900000 0.200000 0.000000
2.000000 0.200000 0.000000
2.100000 0.200000 0.000000
2.200000 0.200000 0.000000
2.300000 0.200000 0.000000
2.400000 0.200000 0.000000
2.500000 0.200000 0.000000
2.600000 0.200000 0.000000
2.700000 0.200000 0.000000
2.800000 0.200000 0.000000
2.900000 0.200000 0.000000
3.000000 0.200000 0.000000
3.100000 0.200000 0.000000
3.200000 0.200000 0.000000
3.300000 0.200000 0.000000
3.400000 0.200000 0.000000
3.500000 0.200000 0.000000
3.600000 0.200000 0.000000
3.700000 0.200000 0.000000
3.800000 0.200000 0.000000
3.900000 0.200000 0.000000
4.000000 0.200000 0.000000
0.000000 0.300000 0.000000
0.100000 0.300000 0.000000
0.200000 0.300000 0.000000
0.300000 0.300000 0.000000
0.400000 0.300000 0.000000
0.500000 0.300000 0.000000
0.600000 0.300000 0.000000
0.700000 0.300000 0.000000
0.800000 0.300000 0.000000
0.900000 0.300000 0.000000
1.000000 0.300000 0.000000
1.100000 0.300000 0.000000
1.200000 0.300000 0.000000
1.300000 0.300000 0.000000
1.400000 0.300000 0.000000
1.500000 0.300000 0.000000
1.600000 0.300000 0.000000
1.700000 0.300000 0.000000
1.800000 0.300000 0.000000
1.900000 0.300000 0.000000
2.000000 0.300000 0.000000
2.100000 0.300000 0.000000
2.200000 0.300000 0.000000
2.300000 0.300000 0.000000
2.400000 0.300000 0.000000
2.500000 0.300000 0.000000
2.600000 0.300000 0.000000
2.700000 0.300000 0.000000
2.800000 0.300000 0.000000
2.900000 0.300000 0.000000
3.000000 0.300000 0.000000
3.100000 0.300000 0.000000
3.200000 0.300000 0.000000
3.300000 0.300000 0.000000
3.400000 0.300000 0.000000
3.500000 0.300000 0.000000
3.600000 0.300000 0.000000
3.700000 0.300000 0.000000
3.800000 0.300000 0.000000
3.900000 0.300000 0.000000
4.000000 0.300000 0.000000
0.000000 0.400000 0.000000
0.100000 0.400000 0.000000
0.200000 0.400000 0.000000
0.300000 0.400000 0.000000
0.400000 0.400000 0.000000
0.500000 0.400000 0.000000
0.600000 0.400000 0.000000
0.700000 0.400000 0.000000
0.800000 0.400000 0.000000
0.900000 0.400000 0.000000
1.000000 0.400000 0.000000
1.100000 0.400000 0.000000
1.200000 0.400000 0.000000
1.300000 0.400000 0.000000
1.400000 0.400000 0.000000
1.500000 0.400000 0.000000
1.600000 0.400000 0.000000
1.700000 0.400000 0.000000
1.800000 0.400000 0.000000
1.900000 0.400000 0.000000
2.000000 0.400000 0.000000
2.100000 0.400000 0.000000
2.200000 0.400000 0.000000
2.300000 0.400000 0.000000
2.400000 0.400000 0.000000
2.500000 0.400000 0.000000
2.600000 0.400000 0.000000
2.700000 0.400000 0.000000
2.800000 0.400000 0.000000
2.900000 0.400000 0.000000
3.000000 0.400000 0.000000
3.100000 0.400000 0.000000
3.200000 0.400000 0.000000
3.300000 0.400000 0.000000
3.400000 0.400000 0.000000
3.500000 0.400000 0.000000
3.600000 0.400000 0.000000
3.700000 0.400000 0.000000
3.800000 0.400000 0.000000
3.900000 0.400000 0.000000
4.000000 0.400000 0.000000
0.000000 0.500000 0.000000
0.100000 0.500000 0.000000
0.200000 0.500000 0.000000
0.300000 0.500000 0.000000
0.400000 0.500000 0.000000
0.500000 0.500000 0.000000
0.600000 0.500000 0.000000
0.700000 0.500000 0.000000
0.800000 0.500000 0.000000
0.900000 0.500000 0.000000
1.000000 0.500000 0.000000
1.100000 0.500000 0.000000
1.200000 0.500000 0.000000
1.300000 0.500000 0.000000
1.400000 0.500000 0.000000
1.500000 0.500000 0.000000
1.600000 0.500000 0.000000
1.700000 0.500000 0.000000
1.800000 0.500000 0.000000
1.900000 0.500000 0.000000
2.000000 0.500000 0.000000
2.100000 0.500000 0.000000
2.200000 0.500000 0.000000
2.300000 0.500000 0.000000
2.400000 0.500000 0.000000
2.500000 0.500000 0.000000
2.600000 0.500000 0.000000
2.700000 0.500000 0.000000
2.800000 0.500000 0.000000
2.900000 0.500000 0.000000
3.000000 0.500000 0.000000
3.100000 0.500000 0.000000
3.200000 0.500000 0.000000
3.300000 0.500000 0.000000
3.400000 0.500000 0.000000
3.500000 0.500000 0.000000
3.600000 0.500000 0.000000
3.700000 0.500000 0.000000
3.800000 0.500000 0.000000
3.900000 0.500000 0.000000
4.000000 0.500000 0.000000
0.000000 0.600000 0.000000
0.100000 0.600000 0.000000
0.200000 0.600000 0.000000
0.300000 0.600000 0.000000
0.400000 0.600000 0.000000
0.500000 0.600000 0.000000
0.600000 0.600000 0.000000
0.700000 0.600000 0.000000
0.800000 0.600000 0.000000
0.900000 0.600000 0.000000
1.000000 0.600000 0.000000
1.100000 0.600000 0.000000
1.200000 0.600000 0.000000
1.300000 0.600000 0.000000
1.400000 0.600000 0.000000
1.500000 0.600000 0.000000
1.600000 0.600000 0.000000
1.700000 0.600000 0.000000
1.800000 0.600000 0.000000
1.900000 0.600000 0.000000
2.000000 0.600000 0.000000
2.100000 0.600000 0.000000
2.200000 0.600000 0.000000
2.300000 0.600000 0.000000
2.400000 0.600000 0.000000
2.500000 0.600000 0.000000
2.600000 0.600000 0.000000
2.700000 0.600000 0.000000
2.800000 0.600000 0.000000
2.900000 0.600000 0.000000
3.000000 0.600000 0.000000
3.100000 0.600000 0.000000
3.200000 0.600000 0.000000
3.300000 0.600000 0.000000
3.400000 0.600000 0.000000
3.500000 0.600000 0.000000
3.600000 0.600000 0.000000
3.700000 0.600000 0.000000
3.800000 0.600000 0.000000
3.900000 0.600000 0.000000
4.000000 0.600000 0.000000
0.000000 0.700000 0.000000
0.100000 0.700000 0.000000
0.200000 0.700000 0.000000
0.300000 0.700000 0.000000
0.400000 0.700000 0.000000
0.500000 0.700000 0.000000
0.600000 0.700000 0.000000
0.700000 0.700000 0.000000
0.800000 0.700000 0.000000
0.900000 0.700000 0.000000
1.000000 0.700000 0.000000
1.100000 0.700000 0.000000
1.200000 0.700000 0.000000
1.300000 0.700000 0.000000
1.400000 0.700000 0.000000
1.500000 0.700000 0.000000
1.600000 0.700000 0.000000
1.700000 0.700000 0.000000
1.800000 0.700000 0.000000
1.900000 0.700000 0.000000
2.000000 0.700000 0.000000
2.100000 0.700000 0.000000
2.200000 0.700000 0.000000
2.300000 0.700000 0.000000
2.400000 0.700000 0.000000
2.500000 0.700000 0.000000
2.600000 0.700000 0.000000
2.700000 0.700000 0.000000
2.800000 0.700000 0.000000
2.900000 0.700000 0.000000
3.000000 0.700000 0.000000
3.100000 0.700000 0.000000
3.200000 0.700000 0.000000
3.300000 0.700000 0.000000
3.400000 0.700000 0.000000
3.500000 0.700000 0.000000
3.600000 0.700000 0.000000
3.700000 0.700000 0.000000
3.800000 0.700000 0.000000
3.900000 0.700000 0.000000
4.000000 0.700000 0.000000
0.000000 0.800000 0.000000
0.100000 0.800000 0.000000
0.200000 0.800000 0.000000
0.300000 0.800000 0.000000
0.400000 0.800000 0.000000
0.500000 0.800000 0.000000
0.600000 0.800000 0.000000
0.700000 0.800000 0.000000
0.800000 0.800000 0.000000
0.900000 0.800000 0.000000
1.000000 0.800000 0.000000
1.100000 0.800000 0.000000
1.200000 0.800000 0.000000
1.300000 0.800000 0.000000
1.400000 0.800000 0.000000
1.500000 0.800000 0.000000
1.600000 0.800000 0.000000
1.700000 0.800000 0.000000
1.800000 0.800000 0.000000
1.900000 0.800000 0.000000
2.000000 0.800000 0.000000
2.100000 0.800000 0.000000
2.200000 0.800000 0.000000
2.300000 0.800000 0.000000
2.400000 0.800000 0.000000
2.500000 0.800000 0.000000
2.600000 0.800000 0.000000
2.700000 0.800000 0.000000
2.800000 0.800000 0.000000
2.900000 0.800000 0.000000
3.000000 0.800000 0.000000
3.100000 0.800000 0.000000
3.200000 0.800000 0.000000
3.300000 0.800000 0.000000
3.400000 0.800000 0.000000
3.500000 0.800000 0.000000
3.600000 0.800000 0.000000
[...]
CELL_DATA 16000
SCALARS pressure float 1
LOOKUP_TABLE default
34.6322
34.4553
34.1183
33.6548
33.0904
32.4416
31.7161
30.9151
30.0348
29.0691
28.0123
26.8619
25.622
24.3053
22.9333
21.5347
20.1412
18.7831
17.4847
16.2618
15.1213
14.0626
13.079
12.1607
11.2967
10.476
9.68865
8.92626
8.18208
7.45084
6.72859
6.01242
5.30028
4.59072
3.88278
3.17582
2.46943
1.76341
1.05767
0.352288
34.6879
34.4855
34.1345
33.6633
33.0948
32.4439
31.7175
30.9164
30.0366
29.0716
28.0154
26.8653
25.6252
24.3076
22.9342
21.5338
20.1388
18.7797
17.4809
16.2582
15.1184
14.0605
13.0778
12.1603
11.2968
10.4764
9.68928
8.92697
8.18278
7.45149
6.72915
6.01289
5.30066
4.59102
3.88302
3.176
2.46956
1.76349
1.0577
0.35224
34.8081
34.569
34.1939
33.7073
33.13
32.4749
31.7479
30.9487
30.0721
29.1104
28.0559
26.9045
25.6589
24.3314
22.9447
21.5296
20.1209
18.7511
17.4458
16.2209
15.0825
14.0283
13.0505
12.1384
11.2799
10.4638
9.6802
8.92063
8.17848
7.44866
6.72736
6.0118
5.30003
4.59069
3.88286
3.17594
2.46955
1.76348
1.05765
0.352141
34.9711
34.6898
34.2848
33.7786
33.1899
32.5302
31.804
31.0092
30.1391
29.1834
28.1319
26.9776
25.7213
24.375
22.9632
21.5204
20.0859
18.6963
17.3791
16.1503
15.0145
13.9674
12.999
12.0967
11.2475
10.4395
9.66247
8.90805
8.16979
7.44281
6.72352
6.00937
5.29854
4.58982
3.88238
3.17569
2.46942
1.7634
1.05756
0.352055
35.1558
34.8325
34.3959
33.8687
33.2684
32.605
31.8814
31.0941
30.2338
29.2872
28.2402
27.0818
25.81
24.4364
22.9879
21.5049
20.0335
18.6157
17.2821
16.0485
14.9171
13.8806
12.9259
12.0378
11.2019
10.4053
9.6375
8.89032
8.1575
7.4345
6.71804
6.00584
5.29635
4.5885
3.88162
3.17528
2.46921
1.76328
1.05748
0.352
35.343
34.9814
34.5152
33.9681
33.3573
32.6917
31.9731
31.1959
30.3484
29.4137
28.3729
27.21
25.9193
24.5115
23.0171
21.4836
19.9661
18.5139
17.1609
15.9224
14.7976
13.775
12.8374
11.9669
11.1472
10.3644
9.60775
8.86923
8.1429
7.42462
6.71151
6.00164
5.29372
4.58691
3.8807
3.17477
2.46895
1.76315
1.05742
0.35198
35.5155
35.1218
34.63
34.066
33.4466
32.7806
32.0686
31.3034
30.4707
29.5497
28.5165
27.3497
26.0388
24.5934
23.0481
21.4586
19.8903
18.4008
17.0276
15.7851
14.6687
13.6618
12.7433
11.8921
11.0897
10.3215
9.57672
8.84728
8.12773
7.41437
6.70474
5.99728
5.29098
4.58525
3.87974
3.17424
2.46868
1.76302
1.05738
0.351987
35.6588
35.2403
34.7286
34.1513
33.526
32.8608
32.1558
31.4026
30.5846
29.6775
28.6525
27.4827
26.1531
24.6719
23.0773
21.4333
19.8163
18.2915
16.9
15.6548
14.5473
13.5562
12.6561
11.823
11.0369
10.2824
9.54844
8.82733
8.11398
7.40509
6.69862
5.99333
5.28851
4.58376
3.87887
3.17377
2.46843
1.76292
1.05735
0.35201
35.7611
35.3258
34.8006
34.2144
33.5853
32.9215
32.2226
31.4792
30.6731
29.7774
28.7596
27.5882
26.2442
24.7346
23.1003
21.4126
19.7565
18.204
16.7986
15.5521
14.4523
13.474
12.5886
11.7698
10.9964
10.2525
9.52691
8.81218
8.10355
7.39806
6.69399
5.99036
5.28665
4.58263
3.87821
3.17341
2.46826
1.76285
1.05734
0.352034
35.8144
35.3706
34.8385
34.2479
33.6171
32.9543
32.2588
31.5209
30.7216
29.8325
28.8188
27.6468
26.295
24.7696
23.1132
21.4008
19.7229
18.1551
16.7423
15.4954
14.4
13.429
12.5518
11.741
10.9745
10.2364
9.51531
8.80404
8.09795
7.3943
6.69152
5.98877
5.28566
4.58203
3.87787
3.17322
2.46816
1.76281
1.05734
0.352048
35.8144
35.3707
34.8386
34.248
33.6171
32.9543
32.2588
31.521
30.7216
29.8325
28.8188
27.6468
26.295
24.7696
23.1132
21.4009
19.7229
18.1552
16.7424
15.4955
14.4002
13.4292
12.5519
11.7411
10.9746
10.2365
9.5154
8.80411
8.09801
7.39435
6.69156
5.9888
5.28568
4.58205
3.87788
3.17323
2.46817
1.76282
1.05734
0.352046
35.7612
35.3259
34.8006
34.2145
33.5854
32.9216
32.2226
31.4793
30.6732
29.7775
28.7596
27.5881
26.2442
24.7346
23.1003
21.4127
19.7566
18.2043
16.7989
15.5525
14.4527
13.4744
12.589
11.7702
10.9968
10.2528
9.52717
8.8124
8.10373
7.39821
6.69411
5.99045
5.28672
4.58268
3.87825
3.17343
2.46827
1.76286
1.05734
0.352029
35.6589
35.2403
34.7287
34.1514
33.5261
32.8609
32.156
31.4028
30.5847
29.6775
28.6525
27.4827
26.153
24.6719
23.0773
21.4334
19.8165
18.2919
16.9005
15.6554
14.548
13.5568
12.6567
11.8236
11.0374
10.2829
9.54885
8.82768
8.11426
7.40532
6.6988
5.99348
5.28862
4.58384
3.87893
3.17381
2.46846
1.76293
1.05735
0.352002
35.5156
35.1219
34.6302
34.0661
33.4468
32.7808
32.0687
31.3036
30.4708
29.5498
28.5166
27.3497
26.0387
24.5934
23.0482
21.4587
19.8907
18.4014
17.0283
15.7859
14.6695
13.6627
12.7442
11.8929
11.0904
10.3222
9.57726
8.84773
8.12811
7.41467
6.70498
5.99747
5.29113
4.58536
3.87982
3.1743
2.46871
1.76304
1.05738
0.351976
35.3431
34.9815
34.5153
33.9683
33.3574
32.6919
31.9732
31.1961
30.3486
29.4138
28.3729
27.2101
25.9193
24.5115
23.0172
21.4839
19.9666
18.5146
17.1617
15.9233
14.7987
13.776
12.8384
11.9679
11.148
10.3651
9.6084
8.86977
8.14335
7.42498
6.7118
6.00186
5.29389
4.58704
3.88079
3.17483
2.46898
1.76317
1.05742
0.351967
35.156
34.8326
34.3961
33.8689
33.2685
32.6051
31.8816
31.0943
30.2339
29.2873
28.2402
27.0818
25.8101
24.4364
22.9881
21.5053
20.034
18.6165
17.283
16.0495
14.9183
13.8818
12.927
12.0389
11.2028
10.4061
9.63821
8.89092
8.158
7.4349
6.71836
6.00609
5.29653
4.58864
3.88172
3.17534
2.46925
1.7633
1.05748
0.351986
34.9713
34.69
34.2849
33.7787
33.1901
32.5304
31.8042
31.0094
30.1392
29.1835
28.132
26.9777
25.7213
24.3751
22.9634
21.5208
20.0865
18.6971
17.3801
16.1515
15.0157
13.9686
13.0002
12.0978
11.2485
10.4404
9.66322
8.90868
8.17031
7.44323
6.72385
6.00962
5.29873
4.58996
3.88247
3.17575
2.46946
1.76341
1.05756
0.35204
34.8083
34.5692
34.1941
33.7075
33.1301
32.475
31.7481
30.9489
30.0722
29.1105
28.056
26.9046
25.659
24.3315
22.945
21.5301
20.1215
18.752
17.4469
16.2221
15.0837
14.0295
13.0517
12.1395
11.2809
10.4647
9.68096
8.92126
8.179
7.44908
6.72768
6.01205
5.30022
4.59083
3.88296
3.176
2.46958
1.76349
1.05764
0.352127
34.688
34.4856
34.1347
33.6635
33.095
32.4441
31.7177
30.9166
30.0367
29.0717
28.0155
26.8654
25.6253
24.3077
22.9344
21.5343
20.1395
18.7806
17.482
16.2594
15.1197
14.0617
13.0789
12.1613
11.2978
10.4773
9.69001
8.92759
8.18329
7.45189
6.72946
6.01313
5.30083
4.59115
3.8831
3.17605
2.46959
1.7635
1.05769
0.352228
34.6324
34.4555
34.1185
33.6549
33.0906
32.4418
31.7163
30.9153
30.035
29.0693
28.0124
26.862
25.6221
24.3055
22.9336
21.5351
20.1419
18.784
17.4857
16.2629
15.1225
14.0637
13.0801
12.1618
11.2977
10.4768
9.68936
8.92685
8.18256
7.45123
6.72889
6.01265
5.30044
4.59084
3.88286
3.17586
2.46945
1.76341
1.05766
0.352278
34.6879
34.4855
34.1345
33.6633
33.0948
32.4439
31.7175
30.9164
30.0365
29.0716
28.0154
26.8653
25.6252
24.3076
22.9341
21.5338
20.1388
18.7797
17.4809
16.2583
15.1185
14.0605
13.0778
12.1603
11.2968
10.4764
9.68928
8.92697
8.18278
7.45149
6.72915
6.01289
5.30066
4.59102
3.88302
3.176
2.46956
1.76349
1.0577
0.35224
34.7315
34.4908
34.121
33.641
33.0683
32.4146
31.6858
30.8823
30.0003
29.0341
27.9783
26.8309
25.5962
24.2866
22.9233
21.5341
20.1498
18.7999
17.5078
16.289
15.1504
14.0915
13.1061
12.1851
11.3178
10.4936
9.70294
8.9376
8.19088
7.45754
6.73359
6.01611
5.30295
4.59264
3.88414
3.17678
2.47011
1.76388
1.05796
0.352315
34.8478
34.561
34.1624
33.665
33.082
32.4227
31.6914
30.8874
30.0062
29.0413
27.9867
26.8396
25.6038
24.2916
22.9244
21.5308
20.1428
18.7904
17.4975
16.2794
15.1424
14.0856
13.1024
12.1832
11.3174
10.4942
9.7041
8.93904
8.19239
7.45897
6.73488
6.0172
5.30386
4.59337
3.88471
3.17722
2.47044
1.76411
1.05808
0.352297
35.0139
34.6754
34.2424
33.7229
33.1268
32.4609
31.7279
30.9255
30.0478
29.0866
28.0337
26.8848
25.642
24.3176
22.9341
21.5226
20.1183
18.7537
17.4539
16.2341
15.0997
14.048
13.0713
12.1587
11.2988
10.4808
9.69475
8.93278
8.18837
7.45653
6.73349
6.0165
5.30358
4.59333
3.88481
3.17736
2.47059
1.76423
1.05814
0.352281
35.2056
34.8152
34.3466
33.8037
33.1937
32.5217
31.7885
30.9901
30.1185
29.1632
28.113
26.9604
25.7057
24.3606
22.9499
21.5087
20.0773
18.6925
17.3812
16.1584
15.0278
13.9843
13.0178
12.1159
11.2659
10.4563
9.67714
8.92047
8.18002
7.45104
6.73001
6.01438
5.30236
4.59268
3.88451
3.17727
2.47059
1.76426
1.05818
0.352292
35.4009
34.9631
34.461
33.8958
33.273
32.5962
31.8645
31.0723
30.2094
29.2619
28.2154
27.0584
25.7882
24.4162
22.9696
21.4895
20.0229
18.6121
17.2864
16.0603
14.9349
13.9022
12.9491
12.0608
11.2234
10.4245
9.6541
8.90422
8.16886
7.44357
6.72515
6.01133
5.30051
4.59163
3.88395
3.177
2.47049
1.76425
1.0582
0.352333
35.5813
35.1032
34.5721
33.9877
33.3543
32.6742
31.9456
31.1612
30.3084
29.3704
28.3285
27.1671
25.8801
24.478
22.9911
21.467
19.9611
18.5217
17.1807
15.9517
14.8329
13.8125
12.8743
12.001
11.1773
10.3901
9.62911
8.88654
8.15666
7.43537
6.71978
6.00791
5.29841
4.59039
3.88327
3.17666
2.47035
1.76422
1.05822
0.352394
35.7311
35.2216
34.6678
34.0683
33.4269
32.7452
32.0205
31.244
30.4015
29.4731
28.4364
27.2716
25.969
24.5378
23.0116
21.4445
19.9004
18.4338
17.0789
15.8481
14.7363
13.7281
12.8042
11.9453
11.1345
10.3582
9.60594
8.87015
8.14534
7.42773
6.71476
6.0047
5.29642
4.58921
3.8826
3.17632
2.4702
1.76418
1.05825
0.352461
35.8381
35.3071
34.7378
34.128
33.4814
32.7992
32.0779
31.3082
30.474
29.5537
28.5217
27.3548
26.0401
24.5859
23.0279
21.426
19.8512
18.3633
16.9979
15.7663
14.6605
13.6623
12.7499
11.9022
11.1014
10.3336
9.58815
8.85757
8.13666
7.42188
6.7109
6.00223
5.29489
4.5883
3.88208
3.17604
2.47008
1.76414
1.05827
0.352517
35.8937
35.352
34.7747
34.1598
33.5106
32.8283
32.1091
31.3431
30.5138
29.5981
28.5689
27.401
26.0799
24.613
23.037
21.4155
19.8235
18.3238
16.9529
15.7211
14.6189
13.6263
12.7202
11.8788
11.0835
10.3203
9.57853
8.85078
8.13198
7.41872
6.70883
6.0009
5.29407
4.5878
3.8818
3.1759
2.47001
1.76413
1.05828
0.352548
35.8937
35.352
34.7747
34.1598
33.5106
32.8283
32.1091
31.3432
30.5138
29.5981
28.5689
27.401
26.0799
24.6129
23.037
21.4155
19.8236
18.3239
16.953
15.7212
14.619
13.6265
12.7204
11.8789
11.0836
10.3204
9.57861
8.85085
8.13203
7.41877
6.70887
6.00093
5.29409
4.58782
3.88182
3.17591
2.47002
1.76413
1.05828
0.352547
35.8381
35.3072
34.7378
34.1281
33.4814
32.7992
32.078
31.3082
30.4741
29.5537
28.5217
27.3547
26.0401
24.5859
23.0279
21.426
19.8514
18.3635
16.9983
15.7667
14.6609
13.6627
12.7502
11.9025
11.1018
10.3339
9.58839
8.85777
8.13682
7.42201
6.71101
6.00231
5.29496
4.58835
3.88212
3.17607
2.47009
1.76415
1.05828
0.352515
35.7312
35.2217
34.6679
34.0684
33.427
32.7453
32.0206
31.2441
30.4016
29.4731
28.4365
27.2716
25.9689
24.5378
23.0116
21.4446
19.9007
18.4342
17.0794
15.8487
14.7369
13.7287
12.8048
11.9458
11.135
10.3586
9.60632
8.87047
8.14561
7.42795
6.71493
6.00484
5.29653
4.58929
3.88266
3.17636
2.47022
1.76419
1.05826
0.352457
35.5814
35.1033
34.5722
33.9878
33.3544
32.6744
31.9458
31.1613
30.3085
29.3705
28.3286
27.1672
25.8801
24.478
22.9912
21.4672
19.9615
18.5222
17.1813
15.9524
14.8337
13.8133
12.875
12.0018
11.178
10.3907
9.62961
8.88697
8.15701
7.43566
6.72001
6.00809
5.29855
4.5905
3.88334
3.17671
2.47039
1.76424
1.05824
0.352389
35.4011
34.9632
34.4611
33.8959
33.2732
32.5963
31.8646
31.0725
30.2095
29.2621
28.2155
27.0584
25.7883
24.4162
22.9698
21.4898
20.0234
18.6127
17.2872
16.0611
14.9358
13.9032
12.95
12.0617
11.2242
10.4252
9.6547
8.90472
8.16928
7.44392
6.72543
6.01154
5.30068
4.59175
3.88404
3.17707
2.47054
1.76428
1.05822
0.352327
35.2058
34.8154
34.3468
33.8038
33.1938
32.5219
31.7886
30.9902
30.1187
29.1633
28.1131
26.9605
25.7058
24.3607
22.9501
21.509
20.0778
18.6932
17.382
16.1594
15.0288
13.9853
13.0188
12.1169
11.2668
10.4571
9.6778
8.92104
8.18049
7.45142
6.73031
6.01462
5.30254
4.59282
3.88461
3.17733
2.47063
1.76429
1.05819
0.352285
35.0141
34.6755
34.2426
33.7231
33.1269
32.4611
31.7281
30.9257
30.048
29.0867
28.0339
26.8849
25.6421
24.3177
22.9343
21.523
20.1189
18.7545
17.4548
16.2352
15.1008
14.0491
13.0723
12.1597
11.2998
10.4816
9.69546
8.93338
8.18886
7.45693
6.73381
6.01674
5.30376
4.59347
3.8849
3.17743
2.47063
1.76425
1.05816
0.352273
34.8479
34.5612
34.1625
33.6651
33.0821
32.4229
31.6916
30.8876
30.0064
29.0414
27.9868
26.8397
25.6039
24.2918
22.9247
21.5313
20.1434
18.7913
17.4985
16.2805
15.1436
14.0868
13.1035
12.1843
11.3183
10.495
9.70482
8.93965
8.19289
7.45938
6.73519
6.01745
5.30404
4.5935
3.88481
3.17728
2.47047
1.76413
1.05809
0.352287
34.7317
34.491
34.1212
33.6412
33.0685
32.4148
31.686
30.8825
30.0005
29.0343
27.9784
26.831
25.5963
24.2868
22.9236
21.5345
20.1505
18.8007
17.5088
16.2901
15.1516
14.0926
13.1072
12.1861
11.3187
10.4944
9.70365
8.93819
8.19136
7.45793
6.7339
6.01634
5.30312
4.59276
3.88422
3.17683
2.47013
1.76389
1.05796
0.352304
34.688
34.4856
34.1347
33.6635
33.095
32.4441
31.7177
30.9166
30.0367
29.0717
28.0155
26.8654
25.6253
24.3078
22.9344
21.5343
20.1395
18.7806
17.4819
16.2593
15.1196
14.0617
13.0789
12.1613
11.2977
10.4772
9.68996
8.92754
8.18325
7.45185
6.72943
6.0131
5.30081
4.59113
3.88309
3.17604
2.46958
1.76349
1.05769
0.352228
34.8081
34.569
34.1939
33.7073
33.13
32.4749
31.7479
30.9487
30.0721
29.1104
28.0559
26.9044
25.6588
24.3313
22.9447
21.5296
20.1209
18.7511
17.4459
16.221
15.0825
14.0283
13.0506
12.1384
11.2799
10.4639
9.68022
8.92064
8.17849
7.44867
6.72736
6.0118
5.30003
4.59069
3.88287
3.17594
2.46955
1.76348
1.05765
0.352141
34.8478
34.561
34.1624
33.6649
33.082
32.4227
31.6914
30.8874
30.0062
29.0413
27.9866
26.8395
25.6037
24.2916
22.9244
21.5308
20.1428
18.7904
17.4976
16.2794
15.1425
14.0856
13.1024
12.1833
11.3174
10.4942
9.70411
8.93905
8.19239
7.45898
6.73488
6.0172
5.30386
4.59337
3.88471
3.17722
2.47044
1.76411
1.05808
0.352297
34.9598
34.6223
34.1909
33.6735
33.0786
32.4122
31.6766
30.8702
29.988
29.0233
27.97
26.8249
25.5916
24.2822
22.918
21.5276
20.1432
18.7948
17.5058
16.291
15.1565
14.101
13.1179
12.1981
11.3308
10.506
9.71409
8.94726
8.199
7.46418
6.7389
6.02026
5.30615
4.59506
3.88595
3.17812
2.47108
1.76455
1.05835
0.352326
35.1263
34.7321
34.2627
33.7207
33.1107
32.4361
31.6972
30.8909
30.011
29.0494
27.9982
26.8527
25.6151
24.2971
22.921
21.5179
20.1225
18.7668
17.475
16.2614
15.1306
14.0801
13.1023
12.1872
11.3238
10.5019
9.71215
8.94672
8.1993
7.46494
6.73985
6.02124
5.30706
4.59587
3.88663
3.17867
2.47151
1.76487
1.05853
0.352358
35.3224
34.8709
34.362
33.7941
33.1684
32.4861
31.7455
30.942
30.0675
29.1115
28.0635
26.9157
25.6679
24.3313
22.9303
21.5004
20.0816
18.7097
17.4103
16.1967
15.0715
14.0296
13.0615
12.1557
11.3006
10.4854
9.70082
8.93928
8.19464
7.46218
6.73837
6.02056
5.30687
4.59594
3.88684
3.17892
2.47176
1.76507
1.05867
0.352421
35.5249
35.02
34.4739
33.8813
33.2411
32.5524
31.8122
31.014
30.1475
29.1997
28.1562
27.0053
25.7432
24.3803
22.9438
21.4756
20.0236
18.629
17.3191
16.1058
14.9883
13.9582
13.0033
12.1103
11.2663
10.4604
9.6832
8.9272
8.18662
7.45705
6.73522
6.01874
5.3059
4.5955
3.88671
3.17895
2.47186
1.7652
1.05879
0.352519
35.7131
35.1624
34.584
33.9699
33.3175
32.6245
31.8864
31.0952
30.2389
29.3012
28.2637
27.11
25.832
24.4382
22.9595
21.4458
19.9546
18.534
17.2131
16.001
14.8932
13.877
12.9373
12.0586
11.2273
10.4318
9.66281
8.91306
8.17709
7.45081
6.73127
6.01634
5.30452
4.59477
3.88637
3.17885
2.47189
1.76527
1.05889
0.352638
35.8701
35.2834
34.6794
34.0485
33.3869
32.6912
31.9562
31.1728
30.327
29.4001
28.3698
27.2146
25.9217
24.4974
22.9754
21.4148
19.884
18.4383
17.1078
15.8984
14.801
13.7989
12.8741
12.0094
11.1901
10.4046
9.64334
8.89951
8.16789
7.44473
6.72737
6.01393
5.3031
4.59398
3.88598
3.1787
2.47186
1.76532
1.05898
0.352756
35.9825
35.371
34.7494
34.107
33.4393
32.7424
32.0105
31.2337
30.3968
29.4792
28.4556
27.3004
25.9963
24.5472
22.9888
21.3885
19.8247
18.359
17.0219
15.8159
14.7276
13.7373
12.8245
11.9709
11.1612
10.3833
9.62817
8.88894
8.1607
7.43997
6.72431
6.01202
5.30196
4.59334
3.88565
3.17855
2.47183
1.76535
1.05904
0.352851
36.0411
35.417
34.7864
34.1382
33.4674
32.7701
32.0401
31.2671
30.4354
29.5233
28.5038
27.3491
26.0392
24.5761
22.9966
21.3732
19.7903
18.3137
16.9734
15.7697
14.6869
13.7034
12.7973
11.9499
11.1454
10.3718
9.61993
8.8832
8.1568
7.43738
6.72264
6.01098
5.30133
4.59299
3.88547
3.17848
2.47181
1.76536
1.05908
0.352904
36.0411
35.417
34.7864
34.1382
33.4675
32.7702
32.0401
31.2671
30.4354
29.5233
28.5038
27.3491
26.0392
24.5761
22.9966
21.3732
19.7904
18.3138
16.9735
15.7699
14.6871
13.7035
12.7975
11.95
11.1455
10.3719
9.62001
8.88326
8.15685
7.43743
6.72268
6.01101
5.30136
4.59301
3.88548
3.17848
2.47181
1.76537
1.05908
0.352903
35.9826
35.3711
34.7494
34.1071
33.4393
32.7425
32.0106
31.2337
30.3969
29.4793
28.4556
27.3004
25.9963
24.5471
22.9888
21.3886
19.8249
18.3593
17.0222
15.8162
14.728
13.7377
12.8249
11.9712
11.1615
10.3836
9.6284
8.88913
8.16086
7.4401
6.72441
6.0121
5.30202
4.59339
3.88569
3.17858
2.47184
1.76536
1.05905
0.352849
35.8702
35.2835
34.6794
34.0486
33.3869
32.6913
31.9563
31.1729
30.3271
29.4002
28.3698
27.2146
25.9217
24.4973
22.9754
21.4149
19.8843
18.4387
17.1083
15.899
14.8016
13.7996
12.8747
12.0099
11.1906
10.405
9.6437
8.89982
8.16815
7.44495
6.72754
6.01406
5.3032
4.59406
3.88604
3.17873
2.47189
1.76533
1.05899
0.352753
35.7132
35.1625
34.5841
33.9701
33.3177
32.6246
31.8865
31.0954
30.239
29.3013
28.2638
27.1101
25.832
24.4382
22.9595
21.446
19.9549
18.5345
17.2137
16.0018
14.894
13.8778
12.938
12.0593
11.228
10.4324
9.66329
8.91347
8.17743
7.45109
6.73149
6.01651
5.30465
4.59487
3.88645
3.1789
2.47192
1.76529
1.0589
0.352633
35.525
35.0201
34.474
33.8814
33.2412
32.5526
31.8124
31.0141
30.1477
29.1999
28.1563
27.0054
25.7433
24.3803
22.9439
21.4759
20.0241
18.6296
17.3199
16.1066
14.9892
13.9592
13.0042
12.1111
11.2671
10.4611
9.68378
8.92769
8.18703
7.45739
6.73549
6.01895
5.30606
4.59562
3.88679
3.17901
2.4719
1.76521
1.0588
0.352514
35.3226
34.8711
34.3622
33.7942
33.1686
32.4862
31.7457
30.9422
30.0677
29.1117
28.0636
26.9158
25.668
24.3314
22.9305
21.5008
20.0821
18.7104
17.4111
16.1976
15.0725
14.0306
13.0625
12.1566
11.3014
10.4861
9.70147
8.93982
8.19509
7.46256
6.73866
6.02079
5.30705
4.59607
3.88693
3.17898
2.47179
1.76509
1.05868
0.352415
35.1264
34.7323
34.2628
33.7208
33.1109
32.4363
31.6974
30.8911
30.0112
29.0496
27.9983
26.8529
25.6152
24.2972
22.9213
21.5183
20.1231
18.7676
17.476
16.2624
15.1317
14.0812
13.1033
12.1881
11.3247
10.5027
9.71284
8.9473
8.19978
7.46533
6.74016
6.02148
5.30725
4.596
3.88673
3.17873
2.47155
1.76488
1.05854
0.35235
34.96
34.6225
34.1911
33.6737
33.0788
32.4124
31.6768
30.8704
29.9882
29.0235
27.9701
26.825
25.5918
24.2824
22.9183
21.5281
20.1439
18.7957
17.5068
16.2921
15.1577
14.1021
13.119
12.1991
11.3318
10.5068
9.71479
8.94786
8.19948
7.46457
6.73921
6.02049
5.30632
4.59519
3.88604
3.17818
2.47112
1.76457
1.05835
0.352318
34.8479
34.5612
34.1625
33.6651
33.0821
32.4229
31.6916
30.8876
30.0063
29.0414
27.9867
26.8396
25.6039
24.2917
22.9247
21.5313
20.1435
18.7913
17.4986
16.2805
15.1436
14.0868
13.1035
12.1843
11.3183
10.495
9.7048
8.93963
8.19286
7.45935
6.73517
6.01742
5.30402
4.59348
3.88479
3.17726
2.47046
1.76411
1.05808
0.352285
34.8083
34.5692
34.1941
33.7075
33.1301
32.4751
31.7481
30.9489
30.0723
29.1105
28.056
26.9046
25.6589
24.3315
22.945
21.5301
20.1215
18.752
17.4469
16.2221
15.0837
14.0295
13.0517
12.1394
11.2808
10.4646
9.68087
8.92118
8.17893
7.44901
6.72762
6.012
5.30017
4.59079
3.88292
3.17597
2.46956
1.76347
1.05763
0.352125
34.9711
34.6898
34.2848
33.7786
33.1899
32.5302
31.804
31.0092
30.139
29.1833
28.1318
26.9775
25.7212
24.3749
22.9631
21.5203
20.0859
18.6963
17.3792
16.1504
15.0146
13.9675
12.9991
12.0968
11.2476
10.4396
9.6625
8.90807
8.16981
7.44282
6.72353
6.00937
5.29854
4.58982
3.88238
3.17569
2.46943
1.7634
1.05757
0.352055
35.0139
34.6754
34.2424
33.7229
33.1267
32.4609
31.7279
30.9255
30.0478
29.0865
28.0336
26.8847
25.6419
24.3175
22.934
21.5226
20.1182
18.7537
17.454
16.2342
15.0997
14.0481
13.0713
12.1587
11.2989
10.4808
9.69477
8.93279
8.18838
7.45653
6.73349
6.0165
5.30358
4.59333
3.88481
3.17737
2.47059
1.76423
1.05814
0.352282
35.1263
34.7321
34.2627
33.7207
33.1107
32.4361
31.6972
30.8909
30.011
29.0494
27.9981
26.8527
25.6151
24.297
22.921
21.5179
20.1225
18.7668
17.475
16.2614
15.1306
14.0801
13.1023
12.1872
11.3238
10.5019
9.71216
8.94673
8.19931
7.46494
6.73986
6.02124
5.30707
4.59587
3.88663
3.17867
2.47151
1.76487