# vtk DataFile Version 2.0
I need something to put here
ASCII

DATASET STRUCTURED_GRID
DIMENSIONS 41 21 21
POINTS 18081 float
0.000000 0.000000 0.000000
0.100000 0.000000 0.000000
0.200000 0.000000 0.000000
0.300000 0.000000 0.000000
0.400000 0.000000 0.000000
0.500000 0.000000 0.000000
0.600000 0.000000 0.000000
0.700000 0.000000 0.000000
0.800000 0.000000 0.000000
0.900000 0.000000 0.000000
1.000000 0.000000 0.000000
1.100000 0.000000 0.000000
1.200000 0.000000 0.000000
1.300000 0.000000 0.000000
1.400000 0.000000 0.000000
1.500000 0.000000 0.000000
1.600000 0.000000 0.000000
1.700000 0.000000 0.000000
1.800000 0.000000 0.000000
1.900000 0.000000 0.000000
2.000000 0.000000 0.000000
2.100000 0.000000 0.000000
2.200000 0.000000 0.000000
2.300000 0.000000 0.000000
2.400000 0.000000 0.000000
2.500000 0.000000 0.000000
2.600000 0.000000 0.000000
2.700000 0.000000 0.000000
2.800000 0.000000 0.000000
2.900000 0.000000 0.000000
3.000000 0.000000 0.000000
3.100000 0.000000 0.000000
3.200000 0.000000 0.000000
3.300000 0.000000 0.000000
3.400000 0.000000 0.000000
3.500000 0.000000 0.000000
3.600000 0.000000 0.000000
3.700000 0.000000 0.000000
3.800000 0.000000 0.000000
3.900000 0.000000 0.000000
4.000000 0.000000 0.000000
0.000000 0.100000 0.000000
0.100000 0.100000 0.000000
0.200000 0.100000 0.000000
0.300000 0.100000 0.000000
0.400000 0.100000 0.000000
0.500000 0.100000 0.000000
0.600000 0.100000 0.000000
0.700000 0.100000 0.000000
0.800000 0.100000 0.000000
0.900000 0.100000 0.000000
1.000000 0.100000 0.000000
1.100000 0.100000 0.000000
1.200000 0.100000 0.000000
1.300000 0.100000 0.000000
1.400000 0.100000 0.000000
1.500000 0.100000 0.000000
1.600000 0.100000 0.000000
1.700000 0.100000 0.000000
1.800000 0.100000 0.000000
1.900000 0.100000 0.000000
2.000000 0.100000 0.000000
2.100000 0.100000 0.000000
2.200000 0.100000 0.000000
2.300000 0.100000 0.000000
2.400000 0.100000 0.000000
2.500000 0.100000 0.000000
2.600000 0.100000 0.000000
2.700000 0.100000 0.000000
2.800000 0.100000 0.000000
2.900000 0.100000 0.000000
3.000000 0.100000 0.000000
3.100000 0.100000 0.000000
3.200000 0.100000 0.000000
3.300000 0.100000 0.000000
3.400000 0.100000 0.000000
3.500000 0.100000 0.000000
3.600000 0.100000 0.000000
3.700000 0.100000 0.000000
3.800000 0.100000 0.000000
3.900000 0.100000 0.000000
4.000000 0.100000 0.000000
0.000000 0.200000 0.000000
0.100000 0.200000 0.000000
0.200000 0.200000 0.000000
0.300000 0.200000 0.000000
0.400000 0.200000 0.000000
0.500000 0.200000 0.000000
0.600000 0.200000 0.000000
0.700000 0.200000 0.000000
0.800000 0.200000 0.000000
0.900000 0.200000 0.000000
1.000000 0.200000 0.000000
1.100000 0.200000 0.000000
1.200000 0.200000 0.000000
1.300000 0.200000 0.000000
1.400000 0.200000 0.000000
1.500000 0.200000 0.000000
1.600000 0.200000 0.000000
1.700000 0.200000 0.000000
1.800000 0.200000 0.000000
1.900000 0.200000 0.000000
2.000000 0.200000 0.000000
2.100000 0.200000 0.000000
2.200000 0.200000 0.000000
2.300000 0.200000 0.000000
2.400000 0.200000 0.000000
2.500000 0.200000 0.000000
2.600000 0.200000 0.000000
2.700000 0.200000 0.000000
2.800000 0.200000 0.000000
2.900000 0.200000 0.000000
3.000000 0.200000 0.000000
3.100000 0.200000 0.000000
3.200000 0.200000 0.000000
3.300000 0.200000 0.000000
3.400000 0.200000 0.000000
3.500000 0.200000 0.000000
3.600000 0.200000 0.000000
3.700000 0.200000 0.000000
3.800000 0.200000 0.000000
3.900000 0.200000 0.000000
4.000000 0.200000 0.000000
0.000000 0.300000 0.000000
0.100000 0.300000 0.000000
0.200000 0.300000 0.000000
0.300000 0.300000 0.000000
0.400000 0.300000 0.000000
0.500000 0.300000 0.000000
0.600000 0.300000 0.000000
0.700000 0.300000 0.000000
0.800000 0.300000 0.000000
0.900000 0.300000 0.000000
1.000000 0.300000 0.000000
1.100000 0.300000 0.000000
1.200000 0.300000 0.000000
1.300000 0.300000 0.000000
1.400000 0.300000 0.000000
1.500000 0.300000 0.000000
1.600000 0.300000 0.000000
1.700000 0.300000 0.000000
1.800000 0.300000 0.000000
1.900000 0.300000 0.000000
2.000000 0.300000 0.000000
2.100000 0.300000 0.000000
2.200000 0.300000 0.000000
2.300000 0.300000 0.000000
2.400000 0.300000 0.000000
2.500000 0.300000 0.000000
2.600000 0.300000 0.000000
2.700000 0.300000 0.000000
2.800000 0.300000 0.000000
2.900000 0.300000 0.000000
3.000000 0.300000 0.000000
3.100000 0.300000 0.000000
3.200000 0.300000 0.000000
3.300000 0.300000 0.000000
3.400000 0.300000 0.000000
3.500000 0.300000 0.000000
3.600000 0.300000 0.000000
3.700000 0.300000 0.000000
3.800000 0.300000 0.000000
3.900000 0.300000 0.000000
4.000000 0.300000 0.000000
0.000000 0.400000 0.000000
0.100000 0.400000 0.000000
0.200000 0.400000 0.000000
0.300000 0.400000 0.000000
0.400000 0.400000 0.000000
0.500000 0.400000 0.000000
0.600000 0.400000 0.000000
0.700000 0.400000 0.000000
0.800000 0.400000 0.000000
0.900000 0.400000 0.000000
1.000000 0.400000 0.000000
1.100000 0.400000 0.000000
1.200000 0.400000 0.000000
1.300000 0.400000 0.000000
1.400000 0.400000 0.000000
1.500000 0.400000 0.000000
1.600000 0.400000 0.000000
1.700000 0.400000 0.000000
1.800000 0.400000 0.000000
1.900000 0.400000 0.000000
2.000000 0.400000 0.000000
2.100000 0.400000 0.000000
2.200000 0.400000 0.000000
2.300000 0.400000 0.000000
2.400000 0.400000 0.000000
2.500000 0.400000 0.000000
2.600000 0.400000 0.000000
2.700000 0.400000 0.000000
2.800000 0.400000 0.000000
2.900000 0.400000 0.000000
3.000000 0.400000 0.000000
3.100000 0.400000 0.000000
3.200000 0.400000 0.000000
3.300000 0.400000 0.000000
3.400000 0.400000 0.000000
3.500000 0.400000 0.000000
3.600000 0.400000 0.000000
3.700000 0.400000 0.000000
3.800000 0.400000 0.000000
3.900000 0.400000 0.000000
4.000000 0.400000 0.000000
0.000000 0.500000 0.000000
0.100000 0.500000 0.000000
0.200000 0.500000 0.000000
0.300000 0.500000 0.000000
0.400000 0.500000 0.000000
0.500000 0.500000 0.000000
0.600000 0.500000 0.000000
0.700000 0.500000 0.000000
0.800000 0.500000 0.000000
0.900000 0.500000 0.000000
1.000000 0.500000 0.000000
1.100000 0.500000 0.000000
1.200000 0.500000 0.000000
1.300000 0.500000 0.000000
1.400000 0.500000 0.000000
1.500000 0.500000 0.000000
1.600000 0.500000 0.000000
1.700000 0.500000 0.000000
1.800000 0.500000 0.000000
1.900000 0.500000 0.000000
2.000000 0.500000 0.000000
2.100000 0.500000 0.000000
2.200000 0.500000 0.000000
2.300000 0.500000 0.000000
2.400000 0.500000 0.000000
2.500000 0.500000 0.000000
2.600000 0.500000 0.000000
2.700000 0.500000 0.000000
2.800000 0.500000 0.000000
2.900000 0.500000 0.000000
3.000000 0.500000 0.000000
3.100000 0.500000 0.000000
3.200000 0.500000 0.000000
3.300000 0.500000 0.000000
3.400000 0.500000 0.000000
3.500000 0.500000 0.000000
3.600000 0.500000 0.000000
3.700000 0.500000 0.000000
3.800000 0.500000 0.000000
3.900000 0.500000 0.000000
4.000000 0.500000 0.000000
0.000000 0.600000 0.000000
0.100000 0.600000 0.000000
0.200000 0.600000 0.000000
0.300000 0.600000 0.000000
0.400000 0.600000 0.000000
0.500000 0.600000 0.000000
0.600000 0.600000 0.000000
0.700000 0.600000 0.000000
0.800000 0.600000 0.000000
0.900000 0.600000 0.000000
1.000000 0.600000 0.000000
1.100000 0.600000 0.000000
1.200000 0.600000 0.000000
1.300000 0.600000 0.000000
1.400000 0.600000 0.000000
1.500000 0.600000 0.000000
1.600000 0.600000 0.000000
1.700000 0.600000 0.000000
1.800000 0.600000 0.000000
1.900000 0.600000 0.000000
2.000000 0.600000 0.000000
2.100000 0.600000 0.000000
2.200000 0.600000 0.000000
2.300000 0.600000 0.000000
2.400000 0.600000 0.000000
2.500000 0.600000 0.000000
2.600000 0.600000 0.000000
2.700000 0.600000 0.000000
2.800000 0.600000 0.000000
2.900000 0.600000 0.000000
3.000000 0.600000 0.000000
3.100000 0.600000 0.000000
3.200000 0.600000 0.000000
3.300000 0.600000 0.000000
3.400000 0.600000 0.000000
3.500000 0.600000 0.000000
3.600000 0.600000 0.000000
3.700000 0.600000 0.000000
3.800000 0.600000 0.000000
3.900000 0.600000 0.000000
4.000000 0.600000 0.000000
0.000000 0.700000 0.000000
0.100000 0.700000 0.000000
0.200000 0.700000 0.000000
0.300000 0.700000 0.000000
0.400000 0.700000 0.000000
0.500000 0.700000 0.000000
0.600000 0.700000 0.000000
0.700000 0.700000 0.000000
0.800000 0.700000 0.000000
0.900000 0.700000 0.000000
1.000000 0.700000 0.000000
1.100000 0.700000 0.000000
1.200000 0.700000 0.000000
1.300000 0.700000 0.000000
1.400000 0.700000 0.000000
1.500000 0.700000 0.000000
1.600000 0.700000 0.000000
1.700000 0.700000 0.000000
1.800000 0.700000 0.000000
1.900000 0.700000 0.000000
2.000000 0.700000 0.000000
2.100000 0.700000 0.000000
2.200000 0.700000 0.000000
2.300000 0.700000 0.000000
2.400000 0.700000 0.000000
2.500000 0.700000 0.000000
2.600000 0.700000 0.000000
2.700000 0.700000 0.000000
2.800000 0.700000 0.000000
2.900000 0.700000 0.000000
3.000000 0.700000 0.000000
3.100000 0.700000 0.000000
3.200000 0.700000 0.000000
3.300000 0.700000 0.000000
3.400000 0.700000 0.000000
3.500000 0.700000 0.000000
3.600000 0.700000 0.000000
3.700000 0.700000 0.000000
3.800000 0.700000 0.000000
3.900000 0.700000 0.000000
4.000000 0.700000 0.000000
0.000000 0.800000 0.000000
0.100000 0.800000 0.000000
0.200000 0.800000 0.000000
0.300000 0.800000 0.000000
0.400000 0.800000 0.000000
0.500000 0.800000 0.000000
0.600000 0.800000 0.000000
0.700000 0.800000 0.000000
0.800000 0.800000 0.000000
0.900000 0.800000 0.000000
1.000000 0.800000 0.000000
1.100000 0.800000 0.000000
1.200000 0.800000 0.000000
1.300000 0.800000 0.000000
1.400000 0.800000 0.000000
1.500000 0.800000 0.000000
1.600000 0.800000 0.000000
1.700000 0.800000 0.000000
1.800000 0.800000 0.000000
1.900000 0.800000 0.000000
2.000000 0.800000 0.000000
2.100000 0.800000 0.000000
2.200000 0.800000 0.000000
2.300000 0.800000 0.000000
2.400000 0.800000 0.000000
2.500000 0.800000 0.000000
2.600000 0.800000 0.000000
2.700000 0.800000 0.000000
2.800000 0.800000 0.000000
2.900000 0.800000 0.000000
3.000000 0.800000 0.000000
3.100000 0.800000 0.000000
3.200000 0.800000 0.000000
3.300000 0.800000 0.000000
3.400000 0.800000 0.000000
3.500000 0.800000 0.000000
3.600000 0.800000 0.000000
[...]
CELL_DATA 16000
SCALARS pressure float 1
LOOKUP_TABLE default
34.6325
34.4557
34.1186
33.6551
33.0907
32.4419
31.7164
30.9154
30.0351
29.0694
28.0125
26.8621
25.6222
24.3054
22.9335
21.5348
20.1413
18.7832
17.4848
16.2618
15.1214
14.0626
13.079
12.1608
11.2968
10.476
9.68866
8.92627
8.18209
7.45084
6.72859
6.01242
5.30028
4.59072
3.88278
3.17582
2.46943
1.76341
1.05767
0.352288
34.6882
34.4858
34.1348
33.6636
33.0951
32.4442
31.7178
30.9167
30.0368
29.0719
28.0157
26.8656
25.6254
24.3078
22.9343
21.5339
20.1389
18.7798
17.481
16.2583
15.1185
14.0606
13.0778
12.1603
11.2968
10.4765
9.68929
8.92698
8.18279
7.45149
6.72915
6.01289
5.30066
4.59102
3.88302
3.176
2.46956
1.76349
1.0577
0.35224
34.8084
34.5694
34.1942
33.7077
33.1303
32.4752
31.7482
30.949
30.0724
29.1107
28.0562
26.9047
25.6591
24.3316
22.9449
21.5298
20.121
18.7512
17.4459
16.221
15.0825
14.0283
13.0506
12.1384
11.2799
10.4639
9.68021
8.92063
8.17849
7.44866
6.72736
6.0118
5.30003
4.59069
3.88287
3.17594
2.46955
1.76348
1.05765
0.352141
34.9714
34.6902
34.2851
33.7789
33.1902
32.5305
31.8043
31.0095
30.1394
29.1837
28.1322
26.9778
25.7215
24.3752
22.9633
21.5205
20.086
18.6964
17.3792
16.1504
15.0146
13.9674
12.999
12.0967
11.2475
10.4395
9.66248
8.90806
8.1698
7.44281
6.72353
6.00937
5.29854
4.58982
3.88238
3.17569
2.46942
1.7634
1.05756
0.352055
35.1562
34.8328
34.3962
33.869
33.2687
32.6053
31.8818
31.0944
30.2341
29.2875
28.2404
27.082
25.8102
24.4365
22.9881
21.5051
20.0336
18.6158
17.2822
16.0485
14.9172
13.8807
12.9259
12.0378
11.2019
10.4053
9.6375
8.89032
8.15751
7.4345
6.71804
6.00584
5.29635
4.5885
3.88162
3.17528
2.46921
1.76328
1.05748
0.352001
35.3433
34.9817
34.5155
33.9685
33.3576
32.692
31.9734
31.1962
30.3487
29.414
28.3731
27.2103
25.9195
24.5117
23.0173
21.4838
19.9663
18.514
17.1609
15.9224
14.7977
13.775
12.8374
11.967
11.1472
10.3644
9.60776
8.86923
8.1429
7.42462
6.71151
6.00164
5.29372
4.58691
3.8807
3.17477
2.46895
1.76315
1.05742
0.351981
35.5158
35.1221
34.6304
34.0663
33.447
32.781
32.0689
31.3037
30.471
29.55
28.5168
27.3499
26.039
24.5936
23.0483
21.4587
19.8905
18.4009
17.0277
15.7852
14.6687
13.6619
12.7434
11.8921
11.0897
10.3216
9.57672
8.84728
8.12773
7.41437
6.70474
5.99728
5.29098
4.58525
3.87974
3.17424
2.46868
1.76303
1.05738
0.351989
35.6591
35.2406
34.7289
34.1516
33.5263
32.8611
32.1562
31.403
30.5849
29.6777
28.6527
27.4829
26.1533
24.6721
23.0774
21.4335
19.8164
18.2916
16.9001
15.6549
14.5473
13.5562
12.6561
11.823
11.0369
10.2824
9.54845
8.82733
8.11398
7.40509
6.69862
5.99333
5.28851
4.58376
3.87887
3.17377
2.46843
1.76292
1.05735
0.352012
35.7615
35.3261
34.8009
34.2147
33.5856
32.9219
32.2229
31.4795
30.6734
29.7777
28.7598
27.5884
26.2444
24.7348
23.1005
21.4127
19.7566
18.2041
16.7987
15.5522
14.4523
13.474
12.5886
11.7698
10.9964
10.2525
9.52691
8.81218
8.10355
7.39806
6.69399
5.99036
5.28665
4.58263
3.87822
3.17341
2.46826
1.76285
1.05734
0.352036
35.8147
35.371
34.8389
34.2483
33.6174
32.9546
32.2591
31.5212
30.7219
29.8327
28.8191
27.647
26.2952
24.7698
23.1133
21.401
19.723
18.1552
16.7424
15.4954
14.4001
13.429
12.5518
11.741
10.9745
10.2364
9.51531
8.80404
8.09795
7.3943
6.69152
5.98877
5.28566
4.58203
3.87787
3.17322
2.46816
1.76282
1.05734
0.352051
35.8148
35.371
34.8389
34.2483
33.6174
32.9546
32.2591
31.5213
30.7219
29.8328
28.8191
27.647
26.2952
24.7698
23.1133
21.401
19.723
18.1553
16.7425
15.4955
14.4002
13.4292
12.552
11.7411
10.9746
10.2365
9.5154
8.80411
8.09801
7.39435
6.69156
5.9888
5.28568
4.58205
3.87788
3.17323
2.46817
1.76282
1.05734
0.35205
35.7615
35.3262
34.801
34.2148
33.5857
32.9219
32.223
31.4796
30.6735
29.7778
28.7599
27.5884
26.2444
24.7347
23.1005
21.4128
19.7567
18.2044
16.799
15.5526
14.4528
13.4744
12.589
11.7702
10.9968
10.2528
9.52717
8.8124
8.10373
7.39821
6.69411
5.99045
5.28672
4.58268
3.87825
3.17343
2.46827
1.76286
1.05735
0.352032
35.6592
35.2407
34.729
34.1517
33.5264
32.8613
32.1563
31.4031
30.585
29.6778
28.6528
27.4829
26.1532
24.672
23.0774
21.4336
19.8166
18.292
16.9006
15.6555
14.548
13.5569
12.6567
11.8236
11.0374
10.2829
9.54886
8.82768
8.11426
7.40532
6.6988
5.99348
5.28862
4.58384
3.87893
3.17381
2.46846
1.76294
1.05736
0.352005
35.5159
35.1222
34.6305
34.0664
33.4471
32.7811
32.069
31.3039
30.4711
29.5501
28.5168
27.3499
26.0389
24.5936
23.0483
21.4589
19.8908
18.4015
17.0284
15.786
14.6696
13.6628
12.7442
11.8929
11.0904
10.3222
9.57727
8.84774
8.12811
7.41467
6.70499
5.99747
5.29113
4.58536
3.87982
3.1743
2.46871
1.76304
1.05738
0.35198
35.3435
34.9819
34.5156
33.9686
33.3577
32.6922
31.9735
31.1964
30.3489
29.4141
28.3732
27.2103
25.9195
24.5117
23.0174
21.484
19.9667
18.5147
17.1618
15.9234
14.7987
13.7761
12.8384
11.9679
11.148
10.3651
9.60841
8.86977
8.14335
7.42498
6.7118
6.00186
5.29389
4.58704
3.88079
3.17484
2.46898
1.76317
1.05742
0.351971
35.1563
34.8329
34.3964
33.8692
33.2689
32.6055
31.8819
31.0946
30.2342
29.2876
28.2405
27.0821
25.8102
24.4366
22.9883
21.5054
20.0341
18.6166
17.2831
16.0496
14.9183
13.8818
12.927
12.0389
11.2028
10.4061
9.63822
8.89092
8.158
7.4349
6.71836
6.00609
5.29653
4.58864
3.88172
3.17535
2.46925
1.7633
1.05749
0.35199
34.9716
34.6903
34.2852
33.779
33.1904
32.5307
31.8045
31.0097
30.1395
29.1838
28.1322
26.9779
25.7215
24.3753
22.9635
21.5209
20.0867
18.6972
17.3802
16.1515
15.0158
13.9687
13.0002
12.0978
11.2485
10.4404
9.66323
8.90869
8.17032
7.44323
6.72386
6.00962
5.29873
4.58996
3.88248
3.17575
2.46946
1.76341
1.05756
0.352043
34.8086
34.5695
34.1944
33.7078
33.1304
32.4753
31.7484
30.9491
30.0725
29.1108
28.0563
26.9048
25.6591
24.3317
22.9451
21.5302
20.1217
18.7521
17.447
16.2222
15.0838
14.0296
13.0518
12.1395
11.2809
10.4647
9.68097
8.92127
8.17901
7.44908
6.72769
6.01205
5.30022
4.59083
3.88296
3.176
2.46958
1.76349
1.05764
0.35213
34.6883
34.486
34.135
33.6638
33.0953
32.4444
31.718
30.9168
30.037
29.072
28.0157
26.8656
25.6255
24.3079
22.9346
21.5344
20.1396
18.7807
17.482
16.2595
15.1197
14.0618
13.079
12.1614
11.2978
10.4773
9.69002
8.92759
8.18329
7.45189
6.72946
6.01313
5.30083
4.59115
3.8831
3.17605
2.46959
1.7635
1.0577
0.35223
34.6327
34.4558
34.1188
33.6552
33.0909
32.4421
31.7166
30.9156
30.0352
29.0695
28.0126
26.8622
25.6223
24.3056
22.9338
21.5353
20.142
18.7841
17.4858
16.263
15.1226
14.0638
13.0801
12.1618
11.2977
10.4769
9.68937
8.92686
8.18257
7.45123
6.72889
6.01265
5.30044
4.59084
3.88286
3.17586
2.46945
1.76341
1.05766
0.352279
34.6882
34.4858
34.1348
33.6636
33.0951
32.4442
31.7178
30.9167
30.0368
29.0718
28.0156
26.8655
25.6254
24.3077
22.9343
21.5339
20.1389
18.7798
17.481
16.2583
15.1185
14.0606
13.0778
12.1603
11.2968
10.4765
9.68929
8.92698
8.18279
7.45149
6.72915
6.01289
5.30066
4.59102
3.88302
3.176
2.46956
1.76349
1.0577
0.35224
34.7319
34.4911
34.1213
33.6414
33.0686
32.4149
31.6861
30.8826
30.0006
29.0344
27.9785
26.8311
25.5963
24.2868
22.9235
21.5342
20.1499
18.8
17.5079
16.2891
15.1505
14.0915
13.1062
12.1851
11.3178
10.4936
9.70295
8.93761
8.19088
7.45754
6.7336
6.01611
5.30295
4.59264
3.88414
3.17678
2.47011
1.76388
1.05796
0.352315
34.8481
34.5613
34.1627
33.6653
33.0823
32.423
31.6917
30.8877
30.0065
29.0416
27.9869
26.8398
25.604
24.2918
22.9246
21.531
20.1429
18.7905
17.4976
16.2795
15.1425
14.0856
13.1024
12.1833
11.3174
10.4942
9.70411
8.93905
8.19239
7.45898
6.73488
6.0172
5.30386
4.59337
3.88471
3.17722
2.47044
1.76411
1.05808
0.352297
35.0142
34.6757
34.2427
33.7232
33.1271
32.4612
31.7282
30.9258
30.0481
29.0868
28.034
26.885
25.6422
24.3178
22.9342
21.5227
20.1184
18.7538
17.454
16.2342
15.0997
14.0481
13.0713
12.1587
11.2989
10.4808
9.69476
8.93278
8.18837
7.45653
6.73349
6.0165
5.30358
4.59333
3.88481
3.17736
2.47059
1.76423
1.05814
0.352281
35.2059
34.8155
34.3469
33.804
33.194
32.522
31.7888
30.9904
30.1188
29.1634
28.1132
26.9606
25.7059
24.3608
22.95
21.5088
20.0774
18.6926
17.3813
16.1585
15.0278
13.9843
13.0179
12.1159
11.2659
10.4563
9.67714
8.92048
8.18003
7.45104
6.73001
6.01438
5.30236
4.59268
3.88451
3.17727
2.47059
1.76426
1.05818
0.352292
35.4013
34.9634
34.4613
33.8961
33.2733
32.5965
31.8648
31.0726
30.2096
29.2622
28.2156
27.0586
25.7884
24.4163
22.9698
21.4896
20.0231
18.6122
17.2865
16.0603
14.935
13.9023
12.9491
12.0608
11.2234
10.4245
9.65411
8.90422
8.16886
7.44357
6.72516
6.01133
5.30051
4.59163
3.88395
3.177
2.47049
1.76425
1.0582
0.352332
35.5816
35.1035
34.5724
33.988
33.3546
32.6746
31.946
31.1615
30.3087
29.3706
28.3287
27.1673
25.8803
24.4781
22.9912
21.4671
19.9612
18.5218
17.1808
15.9518
14.833
13.8126
12.8743
12.001
11.1773
10.3901
9.62912
8.88654
8.15666
7.43537
6.71978
6.00791
5.29841
4.59039
3.88326
3.17666
2.47035
1.76421
1.05822
0.352393
35.7314
35.2219
34.6681
34.0686
33.4272
32.7456
32.0208
31.2443
30.4018
29.4733
28.4367
27.2718
25.9692
24.538
23.0117
21.4446
19.9005
18.4339
17.079
15.8482
14.7363
13.7282
12.8042
11.9453
11.1345
10.3582
9.60594
8.87015
8.14534
7.42773
6.71476
6.0047
5.29642
4.58921
3.8826
3.17631
2.47019
1.76417
1.05825
0.35246
35.8384
35.3075
34.7381
34.1283
33.4817
32.7995
32.0782
31.3085
30.4743
29.5539
28.522
27.355
26.0403
24.5861
23.0281
21.4261
19.8514
18.3634
16.998
15.7664
14.6606
13.6624
12.7499
11.9022
11.1015
10.3336
9.58815
8.85757
8.13666
7.42188
6.7109
6.00223
5.29489
4.58829
3.88208
3.17604
2.47007
1.76414
1.05826
0.352515
35.894
35.3523
34.775
34.1601
33.5109
32.8286
32.1094
31.3435
30.5141
29.5983
28.5692
27.4013
26.0801
24.6131
23.0372
21.4156
19.8237
18.3239
16.953
15.7212
14.6189
13.6264
12.7203
11.8788
11.0835
10.3203
9.57854
8.85079
8.13198
7.41872
6.70883
6.0009
5.29407
4.5878
3.8818
3.1759
2.47001
1.76412
1.05828
0.352547
35.8941
35.3523
34.775
34.1601
33.5109
32.8286
32.1094
31.3435
30.5141
29.5983
28.5692
27.4013
26.0801
24.6131
23.0372
21.4156
19.8237
18.324
16.9531
15.7213
14.6191
13.6265
12.7204
11.8789
11.0837
10.3204
9.57862
8.85085
8.13203
7.41877
6.70887
6.00093
5.29409
4.58782
3.88182
3.17591
2.47001
1.76413
1.05828
0.352546
35.8384
35.3075
34.7381
34.1284
33.4818
32.7996
32.0783
31.3085
30.4744
29.554
28.522
27.355
26.0403
24.5861
23.0281
21.4262
19.8515
18.3636
16.9983
15.7667
14.661
13.6628
12.7503
11.9025
11.1018
10.3339
9.58839
8.85778
8.13682
7.42201
6.71101
6.00231
5.29496
4.58834
3.88212
3.17607
2.47009
1.76415
1.05827
0.352513
35.7315
35.222
34.6682
34.0687
33.4273
32.7457
32.0209
31.2444
30.4019
29.4734
28.4367
27.2718
25.9691
24.538
23.0118
21.4447
19.9008
18.4343
17.0795
15.8487
14.7369
13.7288
12.8048
11.9458
11.135
10.3586
9.60632
8.87047
8.14561
7.42795
6.71493
6.00484
5.29653
4.58929
3.88266
3.17635
2.47022
1.76419
1.05825
0.352456
35.5817
35.1036
34.5725
33.9881
33.3547
32.6747
31.9461
31.1616
30.3088
29.3707
28.3288
27.1674
25.8803
24.4781
22.9913
21.4673
19.9616
18.5223
17.1814
15.9525
14.8337
13.8134
12.8751
12.0018
11.178
10.3907
9.62962
8.88697
8.15702
7.43566
6.72001
6.00809
5.29855
4.5905
3.88334
3.17671
2.47038
1.76424
1.05823
0.352388
35.4014
34.9635
34.4614
33.8962
33.2735
32.5966
31.8649
31.0728
30.2098
29.2623
28.2157
27.0587
25.7885
24.4164
22.9699
21.4899
20.0235
18.6128
17.2872
16.0612
14.9359
13.9032
12.95
12.0617
11.2242
10.4252
9.65471
8.90473
8.16928
7.44392
6.72543
6.01154
5.30068
4.59175
3.88404
3.17706
2.47053
1.76427
1.05821
0.352326
35.2061
34.8157
34.3471
33.8041
33.1942
32.5222
31.7889
30.9905
30.119
29.1636
28.1133
26.9607
25.706
24.3609
22.9502
21.5091
20.0779
18.6933
17.3821
16.1594
15.0288
13.9854
13.0189
12.1169
11.2668
10.4571
9.67781
8.92104
8.18049
7.45142
6.73031
6.01462
5.30254
4.59282
3.88461
3.17733
2.47063
1.76429
1.05819
0.352285
35.0144
34.6759
34.2429
33.7234
33.1272
32.4614
31.7284
30.926
30.0483
29.087
28.0341
26.8851
25.6423
24.3179
22.9345
21.5231
20.119
18.7546
17.4549
16.2352
15.1008
14.0492
13.0724
12.1597
11.2998
10.4816
9.69547
8.93338
8.18887
7.45693
6.73381
6.01675
5.30376
4.59347
3.8849
3.17743
2.47063
1.76425
1.05815
0.352273
34.8483
34.5615
34.1628
33.6654
33.0825
32.4232
31.6919
30.8879
30.0066
29.0417
27.987
26.8399
25.6041
24.2919
22.9249
21.5314
20.1436
18.7914
17.4986
16.2806
15.1436
14.0868
13.1035
12.1843
11.3183
10.495
9.70483
8.93965
8.19289
7.45938
6.7352
6.01745
5.30404
4.5935
3.88481
3.17728
2.47047
1.76412
1.05809
0.352288
34.732
34.4913
34.1215
33.6415
33.0688
32.4151
31.6863
30.8828
30.0008
29.0345
27.9787
26.8312
25.5965
24.287
22.9238
21.5347
20.1506
18.8008
17.5089
16.2902
15.1517
14.0927
13.1073
12.1862
11.3187
10.4944
9.70366
8.9382
8.19137
7.45793
6.7339
6.01634
5.30312
4.59276
3.88422
3.17683
2.47013
1.76389
1.05796
0.352305
34.6883
34.486
34.135
33.6638
33.0953
32.4444
31.718
30.9169
30.037
29.072
28.0158
26.8657
25.6255
24.3079
22.9346
21.5344
20.1396
18.7807
17.482
16.2594
15.1197
14.0617
13.0789
12.1613
11.2977
10.4773
9.68997
8.92755
8.18325
7.45186
6.72943
6.0131
5.30081
4.59113
3.88309
3.17604
2.46958
1.76349
1.05769
0.352228
34.8084
34.5694
34.1942
33.7077
33.1303
32.4752
31.7482
30.949
30.0723
29.1106
28.0561
26.9047
25.659
24.3315
22.9448
21.5297
20.121
18.7512
17.4459
16.2211
15.0826
14.0284
13.0506
12.1384
11.2799
10.4639
9.68023
8.92065
8.17849
7.44867
6.72736
6.0118
5.30004
4.5907
3.88287
3.17594
2.46955
1.76348
1.05765
0.352141
34.8481
34.5613
34.1627
33.6653
33.0823
32.423
31.6917
30.8877
30.0064
29.0415
27.9868
26.8397
25.6039
24.2917
22.9246
21.5309
20.1429
18.7905
17.4976
16.2795
15.1425
14.0857
13.1025
12.1833
11.3174
10.4942
9.70412
8.93905
8.1924
7.45898
6.73488
6.0172
5.30386
4.59337
3.88471
3.17722
2.47044
1.76411
1.05808
0.352297
34.9601
34.6226
34.1912
33.6738
33.0789
32.4125
31.6769
30.8705
29.9883
29.0236
27.9702
26.8251
25.5918
24.2824
22.9182
21.5278
20.1434
18.7949
17.5059
16.2911
15.1566
14.101
13.118
12.1981
11.3309
10.506
9.7141
8.94727
8.199
7.46418
6.7389
6.02026
5.30615
4.59506
3.88596
3.17812
2.47108
1.76456
1.05835
0.352327
35.1266
34.7324
34.263
33.721
33.111
32.4364
31.6975
30.8912
30.0113
29.0497
27.9984
26.853
25.6153
24.2973
22.9212
21.518
20.1226
18.7669
17.4751
16.2614
15.1306
14.0801
13.1023
12.1872
11.3238
10.5019
9.71216
8.94673
8.19931
7.46494
6.73985
6.02124
5.30707
4.59587
3.88663
3.17867
2.47151
1.76487
1.05853
0.352358
35.3227
34.8712
34.3623
33.7944
33.1687
32.4864
31.7458
30.9423
30.0677
29.1118
28.0637
26.9159
25.6681
24.3315
22.9305
21.5006
20.0817
18.7098
17.4103
16.1967
15.0715
14.0296
13.0615
12.1557
11.3006
10.4854
9.70083
8.93928
8.19464
7.46219
6.73837
6.02056
5.30687
4.59594
3.88684
3.17892
2.47176
1.76507
1.05867
0.352421
35.5252
35.0203
34.4742
33.8816
33.2414
32.5527
31.8125
31.0143
30.1478
29.2
28.1564
27.0055
25.7434
24.3804
22.9439
21.4758
20.0237
18.6291
17.3192
16.1058
14.9883
13.9583
13.0034
12.1103
11.2664
10.4604
9.68321
8.92721
8.18663
7.45706
6.73522
6.01874
5.3059
4.5955
3.88671
3.17895
2.47187
1.7652
1.05879
0.352519
35.7134
35.1627
34.5843
33.9703
33.3179
32.6248
31.8867
31.0955
30.2392
29.3014
28.264
27.1102
25.8322
24.4384
22.9596
21.4459
19.9547
18.5341
17.2131
16.0011
14.8932
13.8771
12.9373
12.0586
11.2273
10.4318
9.66282
8.91307
8.17709
7.45081
6.73127
6.01634
5.30452
4.59477
3.88637
3.17885
2.47189
1.76528
1.05889
0.352638
35.8704
35.2837
34.6797
34.0488
33.3872
32.6915
31.9565
31.1731
30.3273
29.4003
28.37
27.2148
25.9219
24.4975
22.9755
21.4149
19.8841
18.4384
17.1078
15.8985
14.801
13.799
12.8741
12.0094
11.1902
10.4046
9.64334
8.89951
8.16789
7.44474
6.72738
6.01393
5.3031
4.59398
3.88598
3.1787
2.47186
1.76532
1.05898
0.352756
35.9828
35.3714
34.7497
34.1073
33.4396
32.7427
32.0108
31.234
30.3971
29.4795
28.4558
27.3006
25.9965
24.5473
22.9889
21.3886
19.8248
18.3592
17.022
15.8159
14.7276
13.7373
12.8245
11.9709
11.1612
10.3833
9.62818
8.88894
8.1607
7.43997
6.72431
6.01202
5.30196
4.59334
3.88565
3.17856
2.47183
1.76535
1.05905
0.352851
36.0414
35.4173
34.7867
34.1385
33.4678
32.7705
32.0404
31.2674
30.4357
29.5235
28.5041
27.3493
26.0394
24.5763
22.9967
21.3733
19.7904
18.3138
16.9735
15.7698
14.687
13.7034
12.7974
11.9499
11.1454
10.3718
9.61994
8.8832
8.1568
7.43739
6.72264
6.01098
5.30134
4.59299
3.88547
3.17848
2.47181
1.76537
1.05908
0.352904
36.0414
35.4174
34.7867
34.1385
33.4678
32.7705
32.0404
31.2674
30.4357
29.5236
28.5041
27.3493
26.0394
24.5762
22.9967
21.3733
19.7905
18.3139
16.9736
15.7699
14.6871
13.7035
12.7975
11.95
11.1455
10.3719
9.62002
8.88327
8.15685
7.43743
6.72268
6.01101
5.30136
4.59301
3.88548
3.17849
2.47182
1.76537
1.05908
0.352903
35.9829
35.3714
34.7498
34.1074
33.4397
32.7428
32.0109
31.234
30.3972
29.4795
28.4559
27.3006
25.9965
24.5473
22.9889
21.3887
19.825
18.3594
17.0223
15.8163
14.728
13.7377
12.8249
11.9712
11.1615
10.3836
9.62841
8.88914
8.16086
7.4401
6.72441
6.0121
5.30202
4.59339
3.88569
3.17858
2.47185
1.76536
1.05905
0.352849
35.8705
35.2838
34.6798
34.0489
33.3873
32.6916
31.9566
31.1732
30.3274
29.4004
28.3701
27.2148
25.9218
24.4975
22.9755
21.4151
19.8844
18.4388
17.1083
15.8991
14.8016
13.7996
12.8747
12.0099
11.1906
10.405
9.64371
8.89982
8.16815
7.44495
6.72754
6.01406
5.3032
4.59406
3.88604
3.17874
2.47189
1.76534
1.05899
0.352753
35.7136
35.1629
34.5844
33.9704
33.318
32.6249
31.8868
31.0957
30.2393
29.3016
28.2641
27.1103
25.8322
24.4384
22.9597
21.4461
19.955
18.5346
17.2138
16.0018
14.894
13.8779
12.9381
12.0593
11.228
10.4324
9.6633
8.91348
8.17743
7.45109
6.73149
6.01651
5.30465
4.59487
3.88645
3.1789
2.47192
1.76529
1.0589
0.352633
35.5253
35.0205
34.4744
33.8817
33.2415
32.5529
31.8127
31.0144
30.148
29.2001
28.1566
27.0056
25.7435
24.3805
22.9441
21.4761
20.0242
18.6297
17.32
16.1067
14.9893
13.9592
13.0043
12.1111
11.2671
10.4611
9.68379
8.9277
8.18704
7.45739
6.73549
6.01895
5.30606
4.59562
3.88679
3.17901
2.4719
1.76522
1.0588
0.352513
35.3229
34.8714
34.3625
33.7945
33.1689
32.4865
31.746
30.9425
30.0679
29.1119
28.0638
26.916
25.6682
24.3316
22.9307
21.5009
20.0822
18.7105
17.4112
16.1977
15.0725
14.0307
13.0625
12.1567
11.3014
10.4861
9.70148
8.93983
8.1951
7.46256
6.73867
6.0208
5.30705
4.59607
3.88693
3.17898
2.47179
1.76509
1.05868
0.352414
35.1267
34.7326
34.2631
33.7212
33.1112
32.4366
31.6977
30.8914
30.0115
29.0498
27.9986
26.8531
25.6154
24.2974
22.9214
21.5184
20.1232
18.7677
17.476
16.2625
15.1317
14.0812
13.1034
12.1882
11.3248
10.5027
9.71285
8.94731
8.19979
7.46533
6.74016
6.02148
5.30725
4.596
3.88673
3.17873
2.47155
1.76488
1.05854
0.35235
34.9603
34.6228
34.1914
33.674
33.0791
32.4127
31.6771
30.8707
29.9885
29.0238
27.9703
26.8252
25.592
24.2826
22.9185
21.5282
20.144
18.7958
17.5069
16.2922
15.1577
14.1021
13.1191
12.1991
11.3318
10.5068
9.7148
8.94786
8.19949
7.46457
6.73921
6.0205
5.30632
4.59519
3.88604
3.17818
2.47112
1.76457
1.05835
0.352318
34.8483
34.5615
34.1629
33.6654
33.0825
32.4232
31.6919
30.8879
30.0066
29.0417
27.987
26.8399
25.604
24.2919
22.9249
21.5314
20.1436
18.7914
17.4987
16.2806
15.1437
14.0868
13.1036
12.1843
11.3183
10.495
9.70481
8.93963
8.19287
7.45935
6.73517
6.01743
5.30402
4.59348
3.88479
3.17726
2.47046
1.76411
1.05808
0.352285
34.8086
34.5695
34.1944
33.7078
33.1304
32.4754
31.7484
30.9492
30.0725
29.1108
28.0563
26.9048
25.6591
24.3317
22.9451
21.5302
20.1217
18.7521
17.447
16.2222
15.0838
14.0295
13.0517
12.1394
11.2808
10.4647
9.68088
8.92119
8.17893
7.44901
6.72762
6.012
5.30017
4.59079
3.88292
3.17597
2.46956
1.76347
1.05763
0.352125
34.9714
34.6902
34.2851
33.7789
33.1902
32.5305
31.8043
31.0095
30.1393
29.1836
28.132
26.9777
25.7214
24.375
22.9632
21.5204
20.086
18.6964
17.3793
16.1505
15.0147
13.9675
12.9991
12.0968
11.2476
10.4396
9.66251
8.90808
8.16981
7.44283
6.72353
6.00937
5.29854
4.58982
3.88238
3.17569
2.46943
1.7634
1.05757
0.352055
35.0142
34.6757
34.2427
33.7232
33.1271
32.4612
31.7282
30.9258
30.048
29.0867
28.0339
26.8849
25.6421
24.3177
22.9342
21.5227
20.1184
18.7538
17.454
16.2342
15.0998
14.0481
13.0714
12.1588
11.2989
10.4808
9.69478
8.9328
8.18838
7.45654
6.7335
6.0165
5.30358
4.59333
3.88481
3.17736
2.47059
1.76423
1.05814
0.352281
35.1266
34.7324
34.263
33.721
33.111
32.4364
31.6975
30.8912
30.0113
29.0496
27.9984
26.8529
25.6153
24.2972
22.9211
21.518
20.1226
18.7669
17.4751
16.2614
15.1307
14.0801
13.1023
12.1872
11.3239
10.5019
9.71217
8.94674
8.19931
7.46494
6.73986
6.02125
5.30707
4.59587
3.88663
3.17867
2.47152