# vtk DataFile Version 2.0
I need something to put here
ASCII

DATASET STRUCTURED_GRID
DIMENSIONS 41 21 21
POINTS 18081 float
0.000000 0.000000 0.000000
0.100000 0.000000 0.000000
0.200000 0.000000 0.000000
0.300000 0.000000 0.000000
0.400000 0.000000 0.000000
0.500000 0.000000 0.000000
0.600000 0.000000 0.000000
0.700000 0.000000 0.000000
0.800000 0.000000 0.000000
0.900000 0.000000 0.000000
1.000000 0.000000 0.000000
1.100000 0.000000 0.000000
1.200000 0.000000 0.000000
1.300000 0.000000 0.000000
1.400000 0.000000 0.000000
1.500000 0.000000 0.000000
1.600000 0.000000 0.000000
1.700000 0.000000 0.000000
1.800000 0.000000 0.000000
1.900000 0.000000 0.000000
2.000000 0.000000 0.000000
2.100000 0.000000 0.000000
2.200000 0.000000 0.000000
2.300000 0.000000 0.000000
2.400000 0.000000 0.000000
2.500000 0.000000 0.000000
2.600000 0.000000 0.000000
2.700000 0.000000 0.000000
2.800000 0.000000 0.000000
2.900000 0.000000 0.000000
3.000000 0.000000 0.000000
3.100000 0.000000 0.000000
3.200000 0.000000 0.000000
3.300000 0.000000 0.000000
3.400000 0.000000 0.000000
3.500000 0.000000 0.000000
3.600000 0.000000 0.000000
3.700000 0.000000 0.000000
3.800000 0.000000 0.000000
3.900000 0.000000 0.000000
4.000000 0.000000 0.000000
0.000000 0.100000 0.000000
0.100000 0.100000 0.000000
0.200000 0.100000 0.000000
0.300000 0.100000 0.000000
0.400000 0.100000 0.000000
0.500000 0.100000 0.000000
0.600000 0.100000 0.000000
0.700000 0.100000 0.000000
0.800000 0.100000 0.000000
0.900000 0.100000 0.000000
1.000000 0.100000 0.000000
1.100000 0.100000 0.000000
1.200000 0.100000 0.000000
1.300000 0.100000 0.000000
1.400000 0.100000 0.000000
1.500000 0.100000 0.000000
1.600000 0.100000 0.000000
1.700000 0.100000 0.000000
1.800000 0.100000 0.000000
1.900000 0.100000 0.000000
2.000000 0.100000 0.000000
2.100000 0.100000 0.000000
2.200000 0.100000 0.000000
2.300000 0.100000 0.000000
2.400000 0.100000 0.000000
2.500000 0.100000 0.000000
2.600000 0.100000 0.000000
2.700000 0.100000 0.000000
2.800000 0.100000 0.000000
2.900000 0.100000 0.000000
3.000000 0.100000 0.000000
3.100000 0.100000 0.000000
3.200000 0.100000 0.000000
3.300000 0.100000 0.000000
3.400000 0.100000 0.000000
3.500000 0.100000 0.000000
3.600000 0.100000 0.000000
3.700000 0.100000 0.000000
3.800000 0.100000 0.000000
3.900000 0.100000 0.000000
4.000000 0.100000 0.000000
0.000000 0.200000 0.000000
0.100000 0.200000 0.000000
0.200000 0.200000 0.000000
0.300000 0.200000 0.000000
0.400000 0.200000 0.000000
0.500000 0.200000 0.000000
0.600000 0.200000 0.000000
0.700000 0.200000 0.000000
0.800000 0.200000 0.000000
0.900000 0.200000 0.000000
1.000000 0.200000 0.000000
1.100000 0.200000 0.000000
1.200000 0.200000 0.000000
1.300000 0.200000 0.000000
1.400000 0.200000 0.000000
1.500000 0.200000 0.000000
1.600000 0.200000 0.000000
1.700000 0.200000 0.000000
1.800000 0.200000 0.000000
1.900000 0.200000 0.000000
2.000000 0.200000 0.000000
2.100000 0.200000 0.000000
2.200000 0.200000 0.000000
2.300000 0.200000 0.000000
2.400000 0.200000 0.000000
2.500000 0.200000 0.000000
2.600000 0.200000 0.000000
2.700000 0.200000 0.000000
2.800000 0.200000 0.000000
2.900000 0.200000 0.000000
3.000000 0.200000 0.000000
3.100000 0.200000 0.000000
3.200000 0.200000 0.000000
3.300000 0.200000 0.000000
3.400000 0.200000 0.000000
3.500000 0.200000 0.000000
3.600000 0.200000 0.000000
3.700000 0.200000 0.000000
3.800000 0.200000 0.000000
3.900000 0.200000 0.000000
4.000000 0.200000 0.000000
0.000000 0.300000 0.000000
0.100000 0.300000 0.000000
0.200000 0.300000 0.000000
0.300000 0.300000 0.000000
0.400000 0.300000 0.000000
0.500000 0.300000 0.000000
0.600000 0.300000 0.000000
0.700000 0.300000 0.000000
0.800000 0.300000 0.000000
0.900000 0.300000 0.000000
1.000000 0.300000 0.000000
1.100000 0.300000 0.000000
1.200000 0.300000 0.000000
1.300000 0.300000 0.000000
1.400000 0.300000 0.000000
1.500000 0.300000 0.000000
1.600000 0.300000 0.000000
1.700000 0.300000 0.000000
1.800000 0.300000 0.000000
1.900000 0.300000 0.000000
2.000000 0.300000 0.000000
2.100000 0.300000 0.000000
2.200000 0.300000 0.000000
2.300000 0.300000 0.000000
2.400000 0.300000 0.000000
2.500000 0.300000 0.000000
2.600000 0.300000 0.000000
2.700000 0.300000 0.000000
2.800000 0.300000 0.000000
2.900000 0.300000 0.000000
3.000000 0.300000 0.000000
3.100000 0.300000 0.000000
3.200000 0.300000 0.000000
3.300000 0.300000 0.000000
3.400000 0.300000 0.000000
3.500000 0.300000 0.000000
3.600000 0.300000 0.000000
3.700000 0.300000 0.000000
3.800000 0.300000 0.000000
3.900000 0.300000 0.000000
4.000000 0.300000 0.000000
0.000000 0.400000 0.000000
0.100000 0.400000 0.000000
0.200000 0.400000 0.000000
0.300000 0.400000 0.000000
0.400000 0.400000 0.000000
0.500000 0.400000 0.000000
0.600000 0.400000 0.000000
0.700000 0.400000 0.000000
0.800000 0.400000 0.000000
0.900000 0.400000 0.000000
1.000000 0.400000 0.000000
1.100000 0.400000 0.000000
1.200000 0.400000 0.000000
1.300000 0.400000 0.000000
1.400000 0.400000 0.000000
1.500000 0.400000 0.000000
1.600000 0.400000 0.000000
1.700000 0.400000 0.000000
1.800000 0.400000 0.000000
1.900000 0.400000 0.000000
2.000000 0.400000 0.000000
2.100000 0.400000 0.000000
2.200000 0.400000 0.000000
2.300000 0.400000 0.000000
2.400000 0.400000 0.000000
2.500000 0.400000 0.000000
2.600000 0.400000 0.000000
2.700000 0.400000 0.000000
2.800000 0.400000 0.000000
2.900000 0.400000 0.000000
3.000000 0.400000 0.000000
3.100000 0.400000 0.000000
3.200000 0.400000 0.000000
3.300000 0.400000 0.000000
3.400000 0.400000 0.000000
3.500000 0.400000 0.000000
3.600000 0.400000 0.000000
3.700000 0.400000 0.000000
3.800000 0.400000 0.000000
3.900000 0.400000 0.000000
4.000000 0.400000 0.000000
0.000000 0.500000 0.000000
0.100000 0.500000 0.000000
0.200000 0.500000 0.000000
0.300000 0.500000 0.000000
0.400000 0.500000 0.000000
0.500000 0.500000 0.000000
0.600000 0.500000 0.000000
0.700000 0.500000 0.000000
0.800000 0.500000 0.000000
0.900000 0.500000 0.000000
1.000000 0.500000 0.000000
1.100000 0.500000 0.000000
1.200000 0.500000 0.000000
1.300000 0.500000 0.000000
1.400000 0.500000 0.000000
1.500000 0.500000 0.000000
1.600000 0.500000 0.000000
1.700000 0.500000 0.000000
1.800000 0.500000 0.000000
1.900000 0.500000 0.000000
2.000000 0.500000 0.000000
2.100000 0.500000 0.000000
2.200000 0.500000 0.000000
2.300000 0.500000 0.000000
2.400000 0.500000 0.000000
2.500000 0.500000 0.000000
2.600000 0.500000 0.000000
2.700000 0.500000 0.000000
2.800000 0.500000 0.000000
2.900000 0.500000 0.000000
3.000000 0.500000 0.000000
3.100000 0.500000 0.000000
3.200000 0.500000 0.000000
3.300000 0.500000 0.000000
3.400000 0.500000 0.000000
3.500000 0.500000 0.000000
3.600000 0.500000 0.000000
3.700000 0.500000 0.000000
3.800000 0.500000 0.000000
3.900000 0.500000 0.000000
4.000000 0.500000 0.000000
0.000000 0.600000 0.000000
0.100000 0.600000 0.000000
0.200000 0.600000 0.000000
0.300000 0.600000 0.000000
0.400000 0.600000 0.000000
0.500000 0.600000 0.000000
0.600000 0.600000 0.000000
0.700000 0.600000 0.000000
0.800000 0.600000 0.000000
0.900000 0.600000 0.000000
1.000000 0.600000 0.000000
1.100000 0.600000 0.000000
1.200000 0.600000 0.000000
1.300000 0.600000 0.000000
1.400000 0.600000 0.000000
1.500000 0.600000 0.000000
1.600000 0.600000 0.000000
1.700000 0.600000 0.000000
1.800000 0.600000 0.000000
1.900000 0.600000 0.000000
2.000000 0.600000 0.000000
2.100000 0.600000 0.000000
2.200000 0.600000 0.000000
2.300000 0.600000 0.000000
2.400000 0.600000 0.000000
2.500000 0.600000 0.000000
2.600000 0.600000 0.000000
2.700000 0.600000 0.000000
2.800000 0.600000 0.000000
2.900000 0.600000 0.000000
3.000000 0.600000 0.000000
3.100000 0.600000 0.000000
3.200000 0.600000 0.000000
3.300000 0.600000 0.000000
3.400000 0.600000 0.000000
3.500000 0.600000 0.000000
3.600000 0.600000 0.000000
3.700000 0.600000 0.000000
3.800000 0.600000 0.000000
3.900000 0.600000 0.000000
4.000000 0.600000 0.000000
0.000000 0.700000 0.000000
0.100000 0.700000 0.000000
0.200000 0.700000 0.000000
0.300000 0.700000 0.000000
0.400000 0.700000 0.000000
0.500000 0.700000 0.000000
0.600000 0.700000 0.000000
0.700000 0.700000 0.000000
0.800000 0.700000 0.000000
0.900000 0.700000 0.000000
1.000000 0.700000 0.000000
1.100000 0.700000 0.000000
1.200000 0.700000 0.000000
1.300000 0.700000 0.000000
1.400000 0.700000 0.000000
1.500000 0.700000 0.000000
1.600000 0.700000 0.000000
1.700000 0.700000 0.000000
1.800000 0.700000 0.000000
1.900000 0.700000 0.000000
2.000000 0.700000 0.000000
2.100000 0.700000 0.000000
2.200000 0.700000 0.000000
2.300000 0.700000 0.000000
2.400000 0.700000 0.000000
2.500000 0.700000 0.000000
2.600000 0.700000 0.000000
2.700000 0.700000 0.000000
2.800000 0.700000 0.000000
2.900000 0.700000 0.000000
3.000000 0.700000 0.000000
3.100000 0.700000 0.000000
3.200000 0.700000 0.000000
3.300000 0.700000 0.000000
3.400000 0.700000 0.000000
3.500000 0.700000 0.000000
3.600000 0.700000 0.000000
3.700000 0.700000 0.000000
3.800000 0.700000 0.000000
3.900000 0.700000 0.000000
4.000000 0.700000 0.000000
0.000000 0.800000 0.000000
0.100000 0.800000 0.000000
0.200000 0.800000 0.000000
0.300000 0.800000 0.000000
0.400000 0.800000 0.000000
0.500000 0.800000 0.000000
0.600000 0.800000 0.000000
0.700000 0.800000 0.000000
0.800000 0.800000 0.000000
0.900000 0.800000 0.000000
1.000000 0.800000 0.000000
1.100000 0.800000 0.000000
1.200000 0.800000 0.000000
1.300000 0.800000 0.000000
1.400000 0.800000 0.000000
1.500000 0.800000 0.000000
1.600000 0.800000 0.000000
1.700000 0.800000 0.000000
1.800000 0.800000 0.000000
1.900000 0.800000 0.000000
2.000000 0.800000 0.000000
2.100000 0.800000 0.000000
2.200000 0.800000 0.000000
2.300000 0.800000 0.000000
2.400000 0.800000 0.000000
2.500000 0.800000 0.000000
2.600000 0.800000 0.000000
2.700000 0.800000 0.000000
2.800000 0.800000 0.000000
2.900000 0.800000 0.000000
3.000000 0.800000 0.000000
3.100000 0.800000 0.000000
3.200000 0.800000 0.000000
3.300000 0.800000 0.000000
3.400000 0.800000 0.000000
3.500000 0.800000 0.000000
3.600000 0.800000 0.000000
[...]
CELL_DATA 16000
SCALARS pressure float 1
LOOKUP_TABLE default
34.6402
34.4633
34.1263
33.6627
33.0983
32.4494
31.7237
30.9224
30.0418
29.0758
28.0185
26.8675
25.6271
24.3099
22.9374
21.5383
20.1444
18.7859
17.487
16.2637
15.1229
14.0638
13.0799
12.1615
11.2973
10.4764
9.68891
8.92644
8.1822
7.45092
6.72863
6.01245
5.30029
4.59073
3.88278
3.17582
2.46943
1.7634
1.05767
0.352287
34.6958
34.4934
34.1425
33.6712
33.1027
32.4516
31.7251
30.9237
30.0436
29.0782
28.0216
26.871
25.6304
24.3122
22.9383
21.5375
20.142
18.7825
17.4833
16.2602
15.12
14.0618
13.0787
12.161
11.2973
10.4768
9.68954
8.92715
8.1829
7.45156
6.72919
6.01292
5.30067
4.59103
3.88302
3.176
2.46956
1.76349
1.0577
0.352239
34.8161
34.577
34.2019
33.7153
33.1378
32.4826
31.7555
30.9561
30.0792
29.1171
28.0621
26.9102
25.664
24.336
22.9488
21.5333
20.1241
18.7539
17.4482
16.2229
15.084
14.0295
13.0515
12.1391
11.2804
10.4642
9.68045
8.9208
8.17859
7.44873
6.7274
6.01183
5.30005
4.5907
3.88287
3.17594
2.46955
1.76348
1.05765
0.352141
34.9791
34.6978
34.2928
33.7865
33.1978
32.5381
31.8117
31.0167
30.1462
29.1901
28.1381
26.9833
25.7264
24.3796
22.9673
21.524
20.0891
18.6991
17.3815
16.1522
15.016
13.9686
12.9999
12.0973
11.248
10.4399
9.66269
8.9082
8.16989
7.44287
6.72356
6.00939
5.29855
4.58982
3.88238
3.17569
2.46942
1.7634
1.05756
0.352055
35.1638
34.8405
34.4039
33.8768
33.2764
32.6129
31.8892
31.1016
30.241
29.294
28.2464
27.0875
25.8152
24.4409
22.992
21.5085
20.0367
18.6185
17.2844
16.0503
14.9186
13.8818
12.9267
12.0384
11.2023
10.4056
9.63769
8.89044
8.15759
7.43455
6.71807
6.00586
5.29635
4.5885
3.88163
3.17528
2.46921
1.76328
1.05749
0.352002
35.351
34.9895
34.5233
33.9762
33.3653
32.6997
31.9809
31.2035
30.3557
29.4206
28.3792
27.2158
25.9245
24.516
23.0212
21.4872
19.9693
18.5167
17.1632
15.9242
14.7991
13.776
12.8382
11.9675
11.1475
10.3646
9.60791
8.86932
8.14296
7.42465
6.71153
6.00165
5.29372
4.58691
3.8807
3.17477
2.46895
1.76315
1.05742
0.351984
35.5236
35.1299
34.6382
34.0741
33.4548
32.7887
32.0765
31.3111
30.4781
29.5567
28.5229
27.3554
26.0438
24.5979
23.0521
21.4621
19.8935
18.4036
17.0299
15.7869
14.67
13.6628
12.744
11.8925
11.09
10.3217
9.57684
8.84734
8.12777
7.41439
6.70475
5.99728
5.29098
4.58525
3.87974
3.17424
2.46868
1.76303
1.05738
0.351994
35.6669
35.2484
34.7368
34.1595
33.5341
32.869
32.1639
31.4105
30.5921
29.6845
28.6589
27.4884
26.1582
24.6764
23.0812
21.4369
19.8194
18.2943
16.9023
15.6566
14.5486
13.5571
12.6567
11.8234
11.0371
10.2825
9.54852
8.82737
8.11399
7.40509
6.69862
5.99333
5.28851
4.58375
3.87887
3.17376
2.46843
1.76293
1.05736
0.352019
35.7693
35.334
34.8088
34.2226
33.5935
32.9297
32.2307
31.4871
30.6807
29.7845
28.7661
27.5939
26.2493
24.739
23.1042
21.4161
19.7596
18.2068
16.8009
15.5539
14.4535
13.4749
12.5891
11.7702
10.9966
10.2526
9.52696
8.8122
8.10355
7.39806
6.69398
5.99035
5.28664
4.58262
3.87821
3.1734
2.46826
1.76285
1.05735
0.352046
35.8226
35.3788
34.8468
34.2562
33.6254
32.9625
32.2669
31.5289
30.7292
29.8396
28.8253
27.6525
26.3001
24.774
23.1171
21.4044
19.726
18.1579
16.7445
15.4971
14.4013
13.4298
12.5523
11.7413
10.9747
10.2365
9.51535
8.80405
8.09795
7.39429
6.69151
5.98876
5.28565
4.58202
3.87786
3.17322
2.46816
1.76282
1.05735
0.352063
35.8226
35.3789
34.8468
34.2562
33.6254
32.9625
32.2669
31.5289
30.7292
29.8396
28.8254
27.6525
26.3
24.774
23.117
21.4044
19.7261
18.1579
16.7446
15.4972
14.4014
13.43
12.5525
11.7414
10.9748
10.2366
9.51543
8.80412
8.09801
7.39434
6.69154
5.98879
5.28567
4.58204
3.87788
3.17323
2.46817
1.76282
1.05735
0.352064
35.7694
35.3341
34.8088
34.2227
33.5936
32.9298
32.2307
31.4872
30.6808
29.7846
28.7661
27.5939
26.2492
24.739
23.1042
21.4162
19.7598
18.207
16.8012
15.5542
14.454
13.4753
12.5896
11.7706
10.997
10.2529
9.52722
8.81242
8.10373
7.3982
6.6941
5.99044
5.28671
4.58267
3.87825
3.17343
2.46827
1.76286
1.05736
0.352048
35.667
35.2485
34.7369
34.1596
33.5342
32.8691
32.164
31.4106
30.5922
29.6846
28.659
27.4884
26.1581
24.6763
23.0812
21.437
19.8197
18.2947
16.9028
15.6572
14.5493
13.5578
12.6573
11.824
11.0377
10.283
9.54893
8.82772
8.11428
7.40532
6.6988
5.99347
5.28862
4.58383
3.87893
3.17381
2.46846
1.76294
1.05737
0.352022
35.5237
35.13
34.6383
34.0742
33.4549
32.7888
32.0767
31.3113
30.4782
29.5568
28.523
27.3554
26.0438
24.5979
23.0521
21.4623
19.8939
18.4041
17.0306
15.7877
14.6709
13.6637
12.7449
11.8933
11.0907
10.3224
9.57737
8.8478
8.12814
7.41469
6.70499
5.99747
5.29112
4.58536
3.87982
3.1743
2.46871
1.76305
1.05739
0.351998
35.3512
34.9896
34.5234
33.9764
33.3655
32.6998
31.9811
31.2037
30.3559
29.4207
28.3793
27.2158
25.9244
24.516
23.0213
21.4875
19.9698
18.5173
17.164
15.9252
14.8001
13.7771
12.8392
11.9684
11.1484
10.3654
9.60855
8.86986
8.14341
7.42502
6.71182
6.00187
5.29389
4.58704
3.88079
3.17484
2.46899
1.76317
1.05743
0.351988
35.164
34.8407
34.4041
33.8769
33.2765
32.6131
31.8894
31.1018
30.2411
29.2941
28.2465
27.0876
25.8152
24.441
22.9922
21.5089
20.0372
18.6192
17.2854
16.0514
14.9198
13.8829
12.9278
12.0394
11.2032
10.4064
9.6384
8.89104
8.15808
7.43495
6.71839
6.0061
5.29654
4.58864
3.88172
3.17535
2.46925
1.7633
1.0575
0.352005
34.9793
34.698
34.2929
33.7867
33.198
32.5382
31.8118
31.0168
30.1463
29.1903
28.1382
26.9834
25.7265
24.3797
22.9675
21.5244
20.0897
18.6999
17.3825
16.1534
15.0173
13.9698
13.001
12.0984
11.249
10.4407
9.66344
8.90883
8.17041
7.44329
6.72389
6.00964
5.29874
4.58996
3.88248
3.17575
2.46946
1.76342
1.05757
0.352057
34.8162
34.5772
34.2021
33.7155
33.138
32.4828
31.7557
30.9562
30.0793
29.1172
28.0622
26.9103
25.6641
24.3362
22.9491
21.5337
20.1248
18.7548
17.4492
16.224
15.0853
14.0308
13.0527
12.1402
11.2814
10.4651
9.6812
8.92143
8.17911
7.44915
6.72773
6.01208
5.30023
4.59083
3.88296
3.176
2.46958
1.76349
1.05765
0.35214
34.696
34.4936
34.1427
33.6714
33.1029
32.4518
31.7253
30.9239
30.0437
29.0784
28.0217
26.8711
25.6305
24.3124
22.9386
21.538
20.1427
18.7834
17.4843
16.2613
15.1212
14.063
13.0799
12.162
11.2983
10.4777
9.69027
8.92776
8.1834
7.45196
6.72951
6.01315
5.30085
4.59116
3.8831
3.17605
2.46959
1.7635
1.0577
0.352236
34.6403
34.4635
34.1265
33.6629
33.0985
32.4496
31.7239
30.9226
30.042
29.0759
28.0186
26.8677
25.6273
24.3101
22.9378
21.5388
20.1451
18.7867
17.488
16.2648
15.1241
14.065
13.081
12.1625
11.2982
10.4772
9.68961
8.92703
8.18268
7.4513
6.72893
6.01267
5.30046
4.59084
3.88286
3.17586
2.46945
1.76341
1.05766
0.352281
34.6958
34.4934
34.1425
33.6712
33.1027
32.4516
31.7251
30.9237
30.0436
29.0782
28.0216
26.871
25.6303
24.3122
22.9383
21.5375
20.142
18.7825
17.4833
16.2602
15.12
14.0618
13.0787
12.161
11.2973
10.4768
9.68954
8.92715
8.1829
7.45156
6.7292
6.01292
5.30067
4.59103
3.88302
3.176
2.46956
1.76349
1.0577
0.352239
34.7395
34.4988
34.1289
33.649
33.0761
32.4223
31.6934
30.8896
30.0073
29.0407
27.9844
26.8365
25.6013
24.2913
22.9275
21.5377
20.153
18.8027
17.5102
16.291
15.152
14.0927
13.1071
12.1858
11.3183
10.494
9.70322
8.93779
8.19101
7.45762
6.73365
6.01614
5.30297
4.59265
3.88414
3.17678
2.47011
1.76387
1.05796
0.352313
34.8557
34.569
34.1703
33.6729
33.0898
32.4305
31.699
30.8947
30.0132
29.0479
27.9928
26.8452
25.6089
24.2962
22.9286
21.5345
20.146
18.7932
17.4999
16.2814
15.144
14.0869
13.1034
12.184
11.3179
10.4945
9.70437
8.93923
8.19252
7.45906
6.73493
6.01723
5.30388
4.59338
3.88472
3.17722
2.47044
1.7641
1.05808
0.352295
35.0219
34.6833
34.2504
33.7308
33.1346
32.4687
31.7355
30.9329
30.0549
29.0932
28.0399
26.8905
25.6472
24.3222
22.9382
21.5263
20.1215
18.7565
17.4563
16.2361
15.1013
14.0493
13.0722
12.1594
11.2994
10.4811
9.69501
8.93296
8.18849
7.4566
6.73354
6.01653
5.30359
4.59334
3.88481
3.17736
2.47058
1.76422
1.05814
0.352278
35.2136
34.8232
34.3546
33.8116
33.2016
32.5295
31.7961
30.9975
30.1256
29.1699
28.1192
26.9661
25.7109
24.3652
22.9539
21.5123
20.0805
18.6952
17.3835
16.1603
15.0293
13.9855
13.0187
12.1166
11.2664
10.4566
9.67737
8.92063
8.18013
7.45111
6.73005
6.0144
5.30237
4.59269
3.88451
3.17726
2.47058
1.76425
1.05817
0.352289
35.4089
34.9711
34.469
33.9038
33.281
32.604
31.8722
31.0798
30.2165
29.2687
28.2217
27.0641
25.7933
24.4207
22.9737
21.4931
20.0261
18.6149
17.2887
16.0622
14.9364
13.9033
12.9499
12.0614
11.2238
10.4248
9.65431
8.90436
8.16895
7.44363
6.72519
6.01135
5.30052
4.59163
3.88395
3.177
2.47049
1.76424
1.05819
0.352328
35.5893
35.1112
34.5802
33.9957
33.3623
32.6822
31.9534
31.1688
30.3157
29.3772
28.3348
27.1728
25.8852
24.4825
22.9951
21.4706
19.9643
18.5244
17.183
15.9536
14.8343
13.8136
12.875
12.0016
11.1777
10.3904
9.62929
8.88665
8.15673
7.43541
6.7198
6.00792
5.29842
4.59039
3.88326
3.17665
2.47034
1.7642
1.05821
0.352389
35.7392
35.2297
34.6759
34.0764
33.435
32.7533
32.0284
31.2517
30.4088
29.48
28.4428
27.2773
25.974
24.5423
23.0156
21.448
19.9036
18.4365
17.0812
15.8499
14.7377
13.7291
12.8049
11.9458
11.1348
10.3584
9.60608
8.87024
8.14539
7.42776
6.71477
6.0047
5.29642
4.58921
3.88259
3.1763
2.47018
1.76416
1.05823
0.352455
35.8462
35.3153
34.7459
34.1362
33.4895
32.8072
32.0859
31.3159
30.4814
29.5606
28.5281
27.3605
26.0452
24.5904
23.0319
21.4295
19.8544
18.366
17.0002
15.7681
14.6619
13.6633
12.7505
11.9026
11.1018
10.3338
9.58827
8.85765
8.1367
7.4219
6.71091
6.00223
5.29489
4.58829
3.88207
3.17603
2.47006
1.76412
1.05825
0.352511
35.9019
35.3601
34.7829
34.1679
33.5187
32.8364
32.1171
31.3509
30.5212
29.605
28.5753
27.4068
26.085
24.6174
23.041
21.419
19.8267
18.3265
16.9552
15.7229
14.6202
13.6273
12.7209
11.8792
11.0838
10.3205
9.57864
8.85085
8.13201
7.41874
6.70884
6.0009
5.29406
4.5878
3.88179
3.17589
2.46999
1.7641
1.05826
0.352543
35.9019
35.3602
34.7829
34.168
33.5188
32.8364
32.1171
31.3509
30.5213
29.6051
28.5753
27.4068
26.0849
24.6174
23.041
21.419
19.8268
18.3266
16.9553
15.723
14.6203
13.6274
12.721
11.8793
11.0839
10.3206
9.57872
8.85092
8.13207
7.41879
6.70887
6.00093
5.29408
4.58781
3.88181
3.17589
2.47
1.76411
1.05826
0.352543
35.8462
35.3154
34.746
34.1362
33.4896
32.8073
32.0859
31.316
30.4815
29.5607
28.5281
27.3605
26.0451
24.5904
23.0319
21.4296
19.8546
18.3662
17.0005
15.7684
14.6623
13.6637
12.7509
11.903
11.1021
10.3341
9.58851
8.85784
8.13686
7.42203
6.71102
6.00232
5.29495
4.58834
3.88211
3.17606
2.47008
1.76413
1.05825
0.352511
35.7393
35.2298
34.676
34.0765
33.4351
32.7534
32.0285
31.2518
30.4089
29.4801
28.4428
27.2773
25.974
24.5423
23.0156
21.4482
19.9038
18.4369
17.0817
15.8505
14.7383
13.7298
12.8055
11.9463
11.1353
10.3588
9.60646
8.87056
8.14566
7.42798
6.71495
6.00484
5.29653
4.58928
3.88265
3.17634
2.47021
1.76417
1.05823
0.352454
35.5895
35.1114
34.5803
33.9959
33.3624
32.6823
31.9536
31.1689
30.3158
29.3773
28.3349
27.1729
25.8852
24.4825
22.9952
21.4708
19.9647
18.5249
17.1836
15.9543
14.8351
13.8144
12.8758
12.0023
11.1784
10.3909
9.62979
8.88708
8.15708
7.4357
6.72003
6.0081
5.29855
4.59049
3.88333
3.1767
2.47037
1.76422
1.05821
0.352387
35.4091
34.9713
34.4692
33.9039
33.2811
32.6042
31.8724
31.08
30.2167
29.2688
28.2218
27.0642
25.7934
24.4208
22.9738
21.4934
20.0266
18.6155
17.2895
16.063
14.9373
13.9043
12.9508
12.0623
11.2246
10.4255
9.6549
8.90486
8.16936
7.44397
6.72546
6.01156
5.30069
4.59175
3.88403
3.17706
2.47052
1.76426
1.05819
0.352326
35.2137
34.8234
34.3548
33.8118
33.2018
32.5297
31.7963
30.9977
30.1258
29.17
28.1193
26.9662
25.7109
24.3653
22.9542
21.5126
20.081
18.6959
17.3844
16.1613
15.0303
13.9865
13.0197
12.1175
11.2673
10.4574
9.67804
8.92119
8.18059
7.45149
6.73035
6.01464
5.30255
4.59282
3.8846
3.17733
2.47062
1.76427
1.05817
0.352286
35.0221
34.6835
34.2505
33.731
33.1348
32.4689
31.7357
30.9331
30.055
29.0934
28.0401
26.8906
25.6473
24.3224
22.9385
21.5267
20.1221
18.7573
17.4572
16.2371
15.1024
14.0504
13.0733
12.1604
11.3003
10.4819
9.69572
8.93355
8.18898
7.457
6.73385
6.01677
5.30378
4.59347
3.8849
3.17742
2.47062
1.76424
1.05814
0.352275
34.8559
34.5692
34.1705
33.6731
33.09
32.4307
31.6992
30.8949
30.0134
29.0481
27.9929
26.8454
25.6091
24.2964
22.9289
21.535
20.1467
18.794
17.5009
16.2824
15.1452
14.088
13.1045
12.185
11.3188
10.4954
9.70509
8.93983
8.19301
7.45946
6.73525
6.01748
5.30406
4.59351
3.88481
3.17728
2.47047
1.76412
1.05808
0.352291
34.7397
34.4989
34.1291
33.6491
33.0763
32.4225
31.6936
30.8898
30.0075
29.0409
27.9846
26.8367
25.6015
24.2915
22.9278
21.5382
20.1537
18.8035
17.5112
16.2921
15.1532
14.0939
13.1082
12.1869
11.3193
10.4948
9.70392
8.93838
8.19149
7.45801
6.73395
6.01637
5.30314
4.59277
3.88422
3.17683
2.47013
1.76388
1.05795
0.352307
34.696
34.4936
34.1427
33.6714
33.1029
32.4518
31.7253
30.9239
30.0438
29.0784
28.0217
26.8711
25.6305
24.3124
22.9386
21.5379
20.1427
18.7833
17.4843
16.2613
15.1212
14.0629
13.0798
12.162
11.2982
10.4776
9.69022
8.92771
8.18336
7.45193
6.72948
6.01313
5.30083
4.59114
3.88309
3.17604
2.46958
1.76349
1.05769
0.352229
34.8161
34.577
34.2019
33.7153
33.1378
32.4826
31.7555
30.956
30.0791
29.117
28.0621
26.9101
25.664
24.336
22.9488
21.5333
20.1241
18.7539
17.4482
16.2229
15.0841
14.0296
13.0515
12.1391
11.2804
10.4642
9.68047
8.92081
8.1786
7.44874
6.7274
6.01183
5.30005
4.5907
3.88287
3.17594
2.46955
1.76348
1.05765
0.352141
34.8557
34.569
34.1703
33.6729
33.0898
32.4305
31.699
30.8947
30.0132
29.0479
27.9928
26.8452
25.6089
24.2962
22.9285
21.5345
20.146
18.7932
17.4999
16.2814
15.1441
14.0869
13.1034
12.184
11.3179
10.4946
9.70438
8.93924
8.19252
7.45906
6.73493
6.01724
5.30388
4.59338
3.88472
3.17722
2.47044
1.76411
1.05808
0.352295
34.9677
34.6302
34.1988
33.6814
33.0864
32.4199
31.6842
30.8775
29.995
29.03
27.9761
26.8306
25.5968
24.2868
22.9221
21.5313
20.1465
18.7976
17.5082
16.293
15.1581
14.1022
13.1189
12.1988
11.3314
10.5064
9.71437
8.94746
8.19913
7.46427
6.73896
6.0203
5.30617
4.59508
3.88596
3.17813
2.47109
1.76456
1.05835
0.352326
35.1342
34.7401
34.2706
33.7286
33.1186
32.4438
31.7048
30.8983
30.018
29.056
28.0044
26.8584
25.6203
24.3017
22.9251
21.5215
20.1257
18.7696
17.4774
16.2633
15.1322
14.0813
13.1032
12.1879
11.3244
10.5023
9.71243
8.94691
8.19943
7.46503
6.73991
6.02128
5.30709
4.59588
3.88664
3.17867
2.47152
1.76487
1.05853
0.352357
35.3304
34.8789
34.37
33.802
33.1763
32.4938
31.7531
30.9494
30.0745
29.1182
28.0697
26.9214
25.673
24.3359
22.9344
21.5041
20.0848
18.7125
17.4126
16.1986
15.073
14.0308
13.0624
12.1564
11.3011
10.4857
9.70108
8.93946
8.19476
7.46227
6.73842
6.0206
5.30689
4.59596
3.88685
3.17893
2.47176
1.76507
1.05867
0.352421
35.5329
35.028
34.4819
33.8893
33.249
32.5603
31.8199
31.0214
30.1547
29.2065
28.1624
27.0109
25.7483
24.3848
22.9478
21.4793
20.0268
18.6318
17.3215
16.1077
14.9898
13.9594
13.0042
12.1109
11.2668
10.4608
9.68343
8.92736
8.18673
7.45713
6.73527
6.01877
5.30592
4.59551
3.88672
3.17896
2.47187
1.7652
1.05879
0.352519
35.7211
35.1705
34.592
33.978
33.3255
32.6324
31.8941
31.1028
30.2461
29.308
28.27
27.1157
25.837
24.4427
22.9635
21.4494
19.9578
18.5368
17.2154
16.0029
14.8946
13.8781
12.9381
12.0592
11.2277
10.4321
9.66302
8.91321
8.17718
7.45088
6.73131
6.01637
5.30454
4.59478
3.88638
3.17886
2.4719
1.76528
1.0589
0.352637
35.8782
35.2915
34.6875
34.0566
33.3949
32.6992
31.9641
31.1804
30.3343
29.407
28.3761
27.2203
25.9267
24.5018
22.9793
21.4184
19.8872
18.4411
17.1101
15.9002
14.8024
13.8
12.8748
12.0099
11.1905
10.4048
9.64352
8.89963
8.16797
7.44479
6.72741
6.01395
5.30311
4.59399
3.88599
3.17871
2.47187
1.76533
1.05898
0.352756
35.9906
35.3792
34.7575
34.1151
33.4474
32.7504
32.0184
31.2414
30.4042
29.4862
28.462
27.3061
26.0013
24.5515
22.9927
21.3921
19.8279
18.3618
17.0242
15.8176
14.7289
13.7383
12.8252
11.9714
11.1615
10.3836
9.62833
8.88904
8.16077
7.44002
6.72434
6.01204
5.30197
4.59335
3.88566
3.17856
2.47184
1.76536
1.05905
0.352851
36.0492
35.4252
34.7945
34.1463
33.4756
32.7782
32.048
31.2748
30.4428
29.5303
28.5102
27.3548
26.0442
24.5805
23.0005
21.3767
19.7936
18.3165
16.9757
15.7715
14.6882
13.7043
12.798
11.9503
11.1457
10.372
9.62008
8.88329
8.15686
7.43743
6.72267
6.011
5.30135
4.593
3.88548
3.17849
2.47182
1.76538
1.05908
0.352904
36.0493
35.4252
34.7946
34.1463
33.4756
32.7782
32.048
31.2748
30.4429
29.5303
28.5102
27.3548
26.0442
24.5804
23.0005
21.3768
19.7936
18.3166
16.9758
15.7716
14.6884
13.7044
12.7981
11.9505
11.1458
10.3721
9.62016
8.88336
8.15692
7.43747
6.7227
6.01103
5.30137
4.59302
3.88549
3.17849
2.47183
1.76538
1.05908
0.352903
35.9907
35.3792
34.7576
34.1152
33.4474
32.7505
32.0184
31.2414
30.4043
29.4862
28.462
27.3061
26.0013
24.5515
22.9927
21.3922
19.8281
18.3621
17.0245
15.818
14.7293
13.7387
12.8256
11.9717
11.1618
10.3838
9.62856
8.88924
8.16093
7.44015
6.72444
6.01212
5.30203
4.5934
3.8857
3.17859
2.47186
1.76537
1.05905
0.352848
35.8783
35.2916
34.6876
34.0567
33.395
32.6993
31.9642
31.1805
30.3345
29.4071
28.3762
27.2203
25.9267
24.5017
22.9794
21.4185
19.8875
18.4415
17.1106
15.9008
14.803
13.8006
12.8754
12.0104
11.191
10.4052
9.64388
8.89994
8.16823
7.445
6.72758
6.01408
5.30321
4.59407
3.88605
3.17875
2.4719
1.76535
1.05899
0.352752
35.7213
35.1706
34.5922
33.9781
33.3257
32.6325
31.8943
31.1029
30.2463
29.3081
28.2702
27.1158
25.8371
24.4427
22.9636
21.4496
19.9581
18.5373
17.216
16.0036
14.8954
13.8789
12.9388
12.0599
11.2284
10.4327
9.6635
8.91361
8.17752
7.45115
6.73153
6.01654
5.30467
4.59488
3.88646
3.17891
2.47193
1.7653
1.0589
0.352632
35.533
35.0282
34.4821
33.8894
33.2492
32.5604
31.8201
31.0216
30.1549
29.2066
28.1626
27.0111
25.7484
24.3849
22.948
21.4796
20.0273
18.6324
17.3222
16.1085
14.9907
13.9603
13.0051
12.1117
11.2676
10.4614
9.68401
8.92785
8.18714
7.45746
6.73553
6.01898
5.30608
4.59563
3.8868
3.17902
2.47191
1.76523
1.0588
0.352512
35.3306
34.8791
34.3702
33.8022
33.1765
32.494
31.7533
30.9496
30.0747
29.1184
28.0698
26.9215
25.6731
24.336
22.9346
21.5044
20.0853
18.7132
17.4135
16.1995
15.074
14.0318
13.0634
12.1573
11.3019
10.4865
9.70172
8.94
8.19521
7.46264
6.73872
6.02083
5.30707
4.59609
3.88694
3.17899
2.4718
1.76509
1.05867
0.352413
35.1344
34.7403
34.2708
33.7288
33.1188
32.444
31.705
30.8985
30.0182
29.0562
28.0045
26.8585
25.6204
24.3019
22.9254
21.522
20.1263
18.7704
17.4783
16.2643
15.1332
14.0824
13.1043
12.1889
11.3253
10.5031
9.71311
8.94749
8.19991
7.46541
6.74022
6.02152
5.30727
4.59601
3.88673
3.17874
2.47156
1.76489
1.05853
0.352348
34.9679
34.6304
34.199
33.6816
33.0866
32.4201
31.6844
30.8777
29.9952
29.0301
27.9763
26.8307
25.5969
24.287
22.9224
21.5318
20.1471
18.7984
17.5092
16.2941
15.1592
14.1034
13.12
12.1998
11.3323
10.5072
9.71507
8.94805
8.19961
7.46465
6.73926
6.02053
5.30634
4.5952
3.88605
3.17818
2.47112
1.76457
1.05835
0.352317
34.8559
34.5692
34.1705
33.6731
33.09
32.4307
31.6992
30.8949
30.0134
29.0481
27.9929
26.8453
25.609
24.2964
22.9289
21.535
20.1467
18.7941
17.5009
16.2825
15.1452
14.088
13.1045
12.185
11.3188
10.4954
9.70507
8.93981
8.19299
7.45943
6.73522
6.01746
5.30404
4.59349
3.88479
3.17726
2.47046
1.76411
1.05807
0.352285
34.8163
34.5772
34.2021
33.7155
33.138
32.4828
31.7557
30.9563
30.0793
29.1172
28.0622
26.9103
25.6641
24.3362
22.9491
21.5337
20.1248
18.7548
17.4492
16.224
15.0853
14.0307
13.0526
12.1401
11.2813
10.465
9.68112
8.92134
8.17903
7.44908
6.72766
6.01202
5.30019
4.59079
3.88292
3.17597
2.46956
1.76347
1.05763
0.352124
34.9791
34.6978
34.2928
33.7865
33.1978
32.538
31.8116
31.0166
30.1461
29.19
28.138
26.9832
25.7263
24.3795
22.9672
21.5239
20.0891
18.6991
17.3815
16.1523
15.0161
13.9687
13
12.0974
11.248
10.4399
9.66272
8.90822
8.16991
7.44289
6.72357
6.00939
5.29855
4.58982
3.88238
3.17569
2.46942
1.7634
1.05756
0.352056
35.0219
34.6833
34.2504
33.7308
33.1346
32.4687
31.7355
30.9329
30.0548
29.0931
28.0398
26.8904
25.6471
24.3221
22.9381
21.5262
20.1215
18.7565
17.4563
16.2361
15.1013
14.0493
13.0723
12.1595
11.2994
10.4812
9.69503
8.93297
8.1885
7.45661
6.73354
6.01653
5.30359
4.59334
3.88481
3.17736
2.47058
1.76422
1.05814
0.352278
35.1342
34.7401
34.2706
33.7286
33.1186
32.4438
31.7048
30.8982
30.018
29.056
28.0043
26.8583
25.6202
24.3016
22.9251
21.5215
20.1257
18.7696
17.4774
16.2633
15.1322
14.0813
13.1033
12.1879
11.3244
10.5023
9.71244
8.94692
8.19944
7.46503
6.73991
6.02128
5.30709
4.59588
3.88664
3.17867
2.47152
1.76487
1.05853
0.352357