# vtk DataFile Version 2.0
I need something to put here
ASCII

DATASET STRUCTURED_GRID
DIMENSIONS 41 21 21
POINTS 18081 float
0.000000 0.000000 0.000000
0.100000 0.000000 0.000000
0.200000 0.000000 0.000000
0.300000 0.000000 0.000000
0.400000 0.000000 0.000000
0.500000 0.000000 0.000000
0.600000 0.000000 0.000000
0.700000 0.000000 0.000000
0.800000 0.000000 0.000000
0.900000 0.000000 0.000000
1.000000 0.000000 0.000000
1.100000 0.000000 0.000000
1.200000 0.000000 0.000000
1.300000 0.000000 0.000000
1.400000 0.000000 0.000000
1.500000 0.000000 0.000000
1.600000 0.000000 0.000000
1.700000 0.000000 0.000000
1.800000 0.000000 0.000000
1.900000 0.000000 0.000000
2.000000 0.000000 0.000000
2.100000 0.000000 0.000000
2.200000 0.000000 0.000000
2.300000 0.000000 0.000000
2.400000 0.000000 0.000000
2.500000 0.000000 0.000000
2.600000 0.000000 0.000000
2.700000 0.000000 0.000000
2.800000 0.000000 0.000000
2.900000 0.000000 0.000000
3.000000 0.000000 0.000000
3.100000 0.000000 0.000000
3.200000 0.000000 0.000000
3.300000 0.000000 0.000000
3.400000 0.000000 0.000000
3.500000 0.000000 0.000000
3.600000 0.000000 0.000000
3.700000 0.000000 0.000000
3.800000 0.000000 0.000000
3.900000 0.000000 0.000000
4.000000 0.000000 0.000000
0.000000 0.100000 0.000000
0.100000 0.100000 0.000000
0.200000 0.100000 0.000000
0.300000 0.100000 0.000000
0.400000 0.100000 0.000000
0.500000 0.100000 0.000000
0.600000 0.100000 0.000000
0.700000 0.100000 0.000000
0.800000 0.100000 0.000000
0.900000 0.100000 0.000000
1.000000 0.100000 0.000000
1.100000 0.100000 0.000000
1.200000 0.100000 0.000000
1.300000 0.100000 0.000000
1.400000 0.100000 0.000000
1.500000 0.100000 0.000000
1.600000 0.100000 0.000000
1.700000 0.100000 0.000000
1.800000 0.100000 0.000000
1.900000 0.100000 0.000000
2.000000 0.100000 0.000000
2.100000 0.100000 0.000000
2.200000 0.100000 0.000000
2.300000 0.100000 0.000000
2.400000 0.100000 0.000000
2.500000 0.100000 0.000000
2.600000 0.100000 0.000000
2.700000 0.100000 0.000000
2.800000 0.100000 0.000000
2.900000 0.100000 0.000000
3.000000 0.100000 0.000000
3.100000 0.100000 0.000000
3.200000 0.100000 0.000000
3.300000 0.100000 0.000000
3.400000 0.100000 0.000000
3.500000 0.100000 0.000000
3.600000 0.100000 0.000000
3.700000 0.100000 0.000000
3.800000 0.100000 0.000000
3.900000 0.100000 0.000000
4.000000 0.100000 0.000000
0.000000 0.200000 0.000000
0.100000 0.200000 0.000000
0.200000 0.200000 0.000000
0.300000 0.200000 0.000000
0.400000 0.200000 0.000000
0.500000 0.200000 0.000000
0.600000 0.200000 0.000000
0.700000 0.200000 0.000000
0.800000 0.200000 0.000000
0.900000 0.200000 0.000000
1.000000 0.200000 0.000000
1.100000 0.200000 0.000000
1.200000 0.200000 0.000000
1.300000 0.200000 0.000000
1.400000 0.200000 0.000000
1.500000 0.200000 0.000000
1.600000 0.200000 0.000000
1.700000 0.200000 0.000000
1.800000 0.200000 0.000000
1.900000 0.200000 0.000000
2.000000 0.200000 0.000000
2.100000 0.200000 0.000000
2.200000 0.200000 0.000000
2.300000 0.200000 0.000000
2.400000 0.200000 0.000000
2.500000 0.200000 0.000000
2.600000 0.200000 0.000000
2.700000 0.200000 0.000000
2.800000 0.200000 0.000000
2.900000 0.200000 0.000000
3.000000 0.200000 0.000000
3.100000 0.200000 0.000000
3.200000 0.200000 0.000000
3.300000 0.200000 0.000000
3.400000 0.200000 0.000000
3.500000 0.200000 0.000000
3.600000 0.200000 0.000000
3.700000 0.200000 0.000000
3.800000 0.200000 0.000000
3.900000 0.200000 0.000000
4.000000 0.200000 0.000000
0.000000 0.300000 0.000000
0.100000 0.300000 0.000000
0.200000 0.300000 0.000000
0.300000 0.300000 0.000000
0.400000 0.300000 0.000000
0.500000 0.300000 0.000000
0.600000 0.300000 0.000000
0.700000 0.300000 0.000000
0.800000 0.300000 0.000000
0.900000 0.300000 0.000000
1.000000 0.300000 0.000000
1.100000 0.300000 0.000000
1.200000 0.300000 0.000000
1.300000 0.300000 0.000000
1.400000 0.300000 0.000000
1.500000 0.300000 0.000000
1.600000 0.300000 0.000000
1.700000 0.300000 0.000000
1.800000 0.300000 0.000000
1.900000 0.300000 0.000000
2.000000 0.300000 0.000000
2.100000 0.300000 0.000000
2.200000 0.300000 0.000000
2.300000 0.300000 0.000000
2.400000 0.300000 0.000000
2.500000 0.300000 0.000000
2.600000 0.300000 0.000000
2.700000 0.300000 0.000000
2.800000 0.300000 0.000000
2.900000 0.300000 0.000000
3.000000 0.300000 0.000000
3.100000 0.300000 0.000000
3.200000 0.300000 0.000000
3.300000 0.300000 0.000000
3.400000 0.300000 0.000000
3.500000 0.300000 0.000000
3.600000 0.300000 0.000000
3.700000 0.300000 0.000000
3.800000 0.300000 0.000000
3.900000 0.300000 0.000000
4.000000 0.300000 0.000000
0.000000 0.400000 0.000000
0.100000 0.400000 0.000000
0.200000 0.400000 0.000000
0.300000 0.400000 0.000000
0.400000 0.400000 0.000000
0.500000 0.400000 0.000000
0.600000 0.400000 0.000000
0.700000 0.400000 0.000000
0.800000 0.400000 0.000000
0.900000 0.400000 0.000000
1.000000 0.400000 0.000000
1.100000 0.400000 0.000000
1.200000 0.400000 0.000000
1.300000 0.400000 0.000000
1.400000 0.400000 0.000000
1.500000 0.400000 0.000000
1.600000 0.400000 0.000000
1.700000 0.400000 0.000000
1.800000 0.400000 0.000000
1.900000 0.400000 0.000000
2.000000 0.400000 0.000000
2.100000 0.400000 0.000000
2.200000 0.400000 0.000000
2.300000 0.400000 0.000000
2.400000 0.400000 0.000000
2.500000 0.400000 0.000000
2.600000 0.400000 0.000000
2.700000 0.400000 0.000000
2.800000 0.400000 0.000000
2.900000 0.400000 0.000000
3.000000 0.400000 0.000000
3.100000 0.400000 0.000000
3.200000 0.400000 0.000000
3.300000 0.400000 0.000000
3.400000 0.400000 0.000000
3.500000 0.400000 0.000000
3.600000 0.400000 0.000000
3.700000 0.400000 0.000000
3.800000 0.400000 0.000000
3.900000 0.400000 0.000000
4.000000 0.400000 0.000000
0.000000 0.500000 0.000000
0.100000 0.500000 0.000000
0.200000 0.500000 0.000000
0.300000 0.500000 0.000000
0.400000 0.500000 0.000000
0.500000 0.500000 0.000000
0.600000 0.500000 0.000000
0.700000 0.500000 0.000000
0.800000 0.500000 0.000000
0.900000 0.500000 0.000000
1.000000 0.500000 0.000000
1.100000 0.500000 0.000000
1.200000 0.500000 0.000000
1.300000 0.500000 0.000000
1.400000 0.500000 0.000000
1.500000 0.500000 0.000000
1.600000 0.500000 0.000000
1.700000 0.500000 0.000000
1.800000 0.500000 0.000000
1.900000 0.500000 0.000000
2.000000 0.500000 0.000000
2.100000 0.500000 0.000000
2.200000 0.500000 0.000000
2.300000 0.500000 0.000000
2.400000 0.500000 0.000000
2.500000 0.500000 0.000000
2.600000 0.500000 0.000000
2.700000 0.500000 0.000000
2.800000 0.500000 0.000000
2.900000 0.500000 0.000000
3.000000 0.500000 0.000000
3.100000 0.500000 0.000000
3.200000 0.500000 0.000000
3.300000 0.500000 0.000000
3.400000 0.500000 0.000000
3.500000 0.500000 0.000000
3.600000 0.500000 0.000000
3.700000 0.500000 0.000000
3.800000 0.500000 0.000000
3.900000 0.500000 0.000000
4.000000 0.500000 0.000000
0.000000 0.600000 0.000000
0.100000 0.600000 0.000000
0.200000 0.600000 0.000000
0.300000 0.600000 0.000000
0.400000 0.600000 0.000000
0.500000 0.600000 0.000000
0.600000 0.600000 0.000000
0.700000 0.600000 0.000000
0.800000 0.600000 0.000000
0.900000 0.600000 0.000000
1.000000 0.600000 0.000000
1.100000 0.600000 0.000000
1.200000 0.600000 0.000000
1.300000 0.600000 0.000000
1.400000 0.600000 0.000000
1.500000 0.600000 0.000000
1.600000 0.600000 0.000000
1.700000 0.600000 0.000000
1.800000 0.600000 0.000000
1.900000 0.600000 0.000000
2.000000 0.600000 0.000000
2.100000 0.600000 0.000000
2.200000 0.600000 0.000000
2.300000 0.600000 0.000000
2.400000 0.600000 0.000000
2.500000 0.600000 0.000000
2.600000 0.600000 0.000000
2.700000 0.600000 0.000000
2.800000 0.600000 0.000000
2.900000 0.600000 0.000000
3.000000 0.600000 0.000000
3.100000 0.600000 0.000000
3.200000 0.600000 0.000000
3.300000 0.600000 0.000000
3.400000 0.600000 0.000000
3.500000 0.600000 0.000000
3.600000 0.600000 0.000000
3.700000 0.600000 0.000000
3.800000 0.600000 0.000000
3.900000 0.600000 0.000000
4.000000 0.600000 0.000000
0.000000 0.700000 0.000000
0.100000 0.700000 0.000000
0.200000 0.700000 0.000000
0.300000 0.700000 0.000000
0.400000 0.700000 0.000000
0.500000 0.700000 0.000000
0.600000 0.700000 0.000000
0.700000 0.700000 0.000000
0.800000 0.700000 0.000000
0.900000 0.700000 0.000000
1.000000 0.700000 0.000000
1.100000 0.700000 0.000000
1.200000 0.700000 0.000000
1.300000 0.700000 0.000000
1.400000 0.700000 0.000000
1.500000 0.700000 0.000000
1.600000 0.700000 0.000000
1.700000 0.700000 0.000000
1.800000 0.700000 0.000000
1.900000 0.700000 0.000000
2.000000 0.700000 0.000000
2.100000 0.700000 0.000000
2.200000 0.700000 0.000000
2.300000 0.700000 0.000000
2.400000 0.700000 0.000000
2.500000 0.700000 0.000000
2.600000 0.700000 0.000000
2.700000 0.700000 0.000000
2.800000 0.700000 0.000000
2.900000 0.700000 0.000000
3.000000 0.700000 0.000000
3.100000 0.700000 0.000000
3.200000 0.700000 0.000000
3.300000 0.700000 0.000000
3.400000 0.700000 0.000000
3.500000 0.700000 0.000000
3.600000 0.700000 0.000000
3.700000 0.700000 0.000000
3.800000 0.700000 0.000000
3.900000 0.700000 0.000000
4.000000 0.700000 0.000000
0.000000 0.800000 0.000000
0.100000 0.800000 0.000000
0.200000 0.800000 0.000000
0.300000 0.800000 0.000000
0.400000 0.800000 0.000000
0.500000 0.800000 0.000000
0.600000 0.800000 0.000000
0.700000 0.800000 0.000000
0.800000 0.800000 0.000000
0.900000 0.800000 0.000000
1.000000 0.800000 0.000000
1.100000 0.800000 0.000000
1.200000 0.800000 0.000000
1.300000 0.800000 0.000000
1.400000 0.800000 0.000000
1.500000 0.800000 0.000000
1.600000 0.800000 0.000000
1.700000 0.800000 0.000000
1.800000 0.800000 0.000000
1.900000 0.800000 0.000000
2.000000 0.800000 0.000000
2.100000 0.800000 0.000000
2.200000 0.800000 0.000000
2.300000 0.800000 0.000000
2.400000 0.800000 0.000000
2.500000 0.800000 0.000000
2.600000 0.800000 0.000000
2.700000 0.800000 0.000000
2.800000 0.800000 0.000000
2.900000 0.800000 0.000000
3.000000 0.800000 0.000000
3.100000 0.800000 0.000000
3.200000 0.800000 0.000000
3.300000 0.800000 0.000000
3.400000 0.800000 0.000000
3.500000 0.800000 0.000000
3.600000 0.800000 0.000000
[...]
CELL_DATA 16000
SCALARS pressure float 1
LOOKUP_TABLE default
26.2154
26.0327
25.6946
25.2435
24.7126
24.1262
23.5014
22.8501
22.1807
21.4989
20.8088
20.1129
19.4132
18.7111
18.0072
17.3023
16.5968
15.8909
15.1849
14.4788
13.7727
13.0666
12.3605
11.6544
10.9482
10.242
9.53572
8.82944
8.12314
7.41682
6.71048
6.00414
5.29778
4.59142
3.88505
3.17869
2.47231
1.76594
1.05957
0.35319
26.2739
26.064
25.7113
25.2523
24.7172
24.1285
23.5024
22.8505
22.1808
21.4988
20.8086
20.1127
19.4131
18.7109
18.0071
17.3022
16.5967
15.8909
15.1849
14.4788
13.7727
13.0666
12.3605
11.6544
10.9482
10.242
9.53571
8.82944
8.12314
7.41682
6.71048
6.00414
5.29778
4.59142
3.88505
3.17868
2.47231
1.76594
1.05957
0.35319
26.394
26.1446
25.7651
25.2881
24.7409
24.1442
23.5128
22.8574
22.1853
21.5018
20.8105
20.1139
19.4138
18.7114
18.0074
17.3023
16.5968
15.8909
15.1848
14.4788
13.7727
13.0666
12.3605
11.6544
10.9482
10.242
9.53572
8.82945
8.12315
7.41682
6.71049
6.00414
5.29778
4.59142
3.88505
3.17869
2.47231
1.76594
1.05957
0.353191
26.55
26.2561
25.8433
25.3423
24.7783
24.1698
23.5302
22.8691
22.1932
21.507
20.814
20.1162
19.4154
18.7123
18.0079
17.3027
16.5969
15.8909
15.1848
14.4788
13.7727
13.0666
12.3605
11.6544
10.9482
10.242
9.53575
8.82947
8.12316
7.41683
6.71049
6.00414
5.29779
4.59142
3.88506
3.17869
2.47231
1.76594
1.05957
0.353191
26.7196
26.3823
25.9346
25.4072
24.8238
24.2015
23.5521
22.8841
22.2033
21.5139
20.8186
20.1193
19.4174
18.7137
18.0087
17.3031
16.5971
15.8909
15.1848
14.4787
13.7727
13.0666
12.3605
11.6544
10.9483
10.242
9.53578
8.82949
8.12318
7.41685
6.71051
6.00415
5.29779
4.59143
3.88506
3.17869
2.47232
1.76594
1.05957
0.353191
26.885
26.5088
26.0282
25.475
24.8722
24.2356
23.5759
22.9005
22.2146
21.5215
20.8237
20.1228
19.4197
18.7152
18.0097
17.3036
16.5973
15.891
15.1848
14.4787
13.7727
13.0667
12.3606
11.6545
10.9483
10.2421
9.53582
8.82952
8.12321
7.41687
6.71052
6.00416
5.2978
4.59143
3.88506
3.17869
2.47232
1.76594
1.05957
0.353191
27.0324
26.6239
26.1148
25.5386
24.9181
24.2682
23.5988
22.9165
22.2255
21.529
20.8288
20.1262
19.422
18.7167
18.0106
17.3041
16.5975
15.891
15.1848
14.4787
13.7727
13.0667
12.3606
11.6545
10.9484
10.2421
9.53587
8.82956
8.12323
7.41689
6.71053
6.00417
5.29781
4.59144
3.88506
3.17869
2.47232
1.76594
1.05957
0.35319
27.1513
26.718
26.1866
25.5919
24.9569
24.2961
23.6185
22.9302
22.235
21.5355
20.8333
20.1293
19.4241
18.7181
18.0115
17.3046
16.5977
15.8911
15.1847
14.4787
13.7727
13.0667
12.3607
11.6546
10.9484
10.2422
9.53591
8.8296
8.12326
7.41691
6.71055
6.00418
5.29781
4.59144
3.88507
3.17869
2.47232
1.76594
1.05957
0.35319
27.2345
26.7846
26.2377
25.6302
24.985
24.3163
23.6328
22.9402
22.242
21.5403
20.8365
20.1315
19.4257
18.7191
18.0121
17.3049
16.5979
15.8911
15.1847
14.4787
13.7727
13.0668
12.3608
11.6547
10.9485
10.2422
9.53595
8.82963
8.12328
7.41693
6.71056
6.00419
5.29782
4.59145
3.88507
3.1787
2.47232
1.76594
1.05957
0.353189
27.2772
26.8189
26.2643
25.6501
24.9996
24.3269
23.6404
22.9456
22.2457
21.5428
20.8383
20.1328
19.4265
18.7197
18.0125
17.3051
16.598
15.8911
15.1847
14.4787
13.7727
13.0668
12.3608
11.6547
10.9485
10.2423
9.53597
8.82965
8.1233
7.41694
6.71057
6.0042
5.29782
4.59145
3.88507
3.1787
2.47232
1.76594
1.05957
0.353189
27.2772
26.8189
26.2643
25.6502
24.9997
24.3269
23.6404
22.9456
22.2457
21.5429
20.8383
20.1328
19.4266
18.7197
18.0125
17.3052
16.598
15.8912
15.1848
14.4787
13.7728
13.0668
12.3608
11.6547
10.9485
10.2423
9.53599
8.82966
8.12331
7.41694
6.71057
6.0042
5.29783
4.59145
3.88507
3.1787
2.47232
1.76594
1.05957
0.353188
27.2345
26.7846
26.2378
25.6302
24.985
24.3163
23.6329
22.9403
22.2421
21.5404
20.8367
20.1317
19.4258
18.7193
18.0123
17.3051
16.598
15.8913
15.1849
14.4788
13.7728
13.0669
12.3608
11.6547
10.9485
10.2423
9.53598
8.82965
8.12331
7.41694
6.71057
6.0042
5.29783
4.59145
3.88507
3.1787
2.47232
1.76594
1.05957
0.353187
27.1514
26.7181
26.1866
25.592
24.957
24.2961
23.6186
22.9303
22.2351
21.5356
20.8334
20.1295
19.4243
18.7183
18.0117
17.3049
16.598
15.8913
15.185
14.4789
13.7729
13.0669
12.3608
11.6547
10.9485
10.2423
9.53597
8.82964
8.1233
7.41694
6.71057
6.0042
5.29782
4.59145
3.88507
3.1787
2.47232
1.76594
1.05957
0.353187
27.0325
26.6239
26.1149
25.5387
24.9182
24.2683
23.5989
22.9166
22.2257
21.5292
20.829
20.1265
19.4223
18.717
18.011
17.3045
16.5979
15.8914
15.1851
14.479
13.7729
13.0669
12.3608
11.6547
10.9485
10.2422
9.53595
8.82962
8.12328
7.41693
6.71056
6.00419
5.29782
4.59145
3.88507
3.1787
2.47232
1.76594
1.05957
0.353186
26.8851
26.5089
26.0283
25.4751
24.8723
24.2357
23.576
22.9007
22.2147
21.5217
20.824
20.1231
19.4201
18.7156
18.0101
17.304
16.5977
15.8914
15.1852
14.4791
13.773
13.0669
12.3608
11.6547
10.9485
10.2422
9.53592
8.8296
8.12326
7.41691
6.71055
6.00419
5.29782
4.59144
3.88507
3.17869
2.47232
1.76594
1.05956
0.353186
26.7197
26.3824
25.9347
25.4073
24.8239
24.2016
23.5523
22.8843
22.2035
21.5141
20.8189
20.1197
19.4178
18.7141
18.0092
17.3036
16.5976
15.8914
15.1852
14.4791
13.773
13.0669
12.3608
11.6546
10.9484
10.2422
9.53589
8.82958
8.12324
7.4169
6.71054
6.00418
5.29781
4.59144
3.88507
3.17869
2.47232
1.76594
1.05956
0.353186
26.5501
26.2562
25.8434
25.3424
24.7784
24.1699
23.5304
22.8693
22.1934
21.5073
20.8143
20.1166
19.4158
18.7128
18.0084
17.3032
16.5974
15.8914
15.1853
14.4792
13.773
13.0669
12.3608
11.6546
10.9484
10.2421
9.53586
8.82955
8.12323
7.41689
6.71053
6.00417
5.2978
4.59143
3.88506
3.17869
2.47231
1.76594
1.05956
0.353186
26.3942
26.1447
25.7652
25.2882
24.7411
24.1444
23.513
22.8576
22.1855
21.502
20.8108
20.1143
19.4143
18.7118
18.0078
17.3028
16.5973
15.8913
15.1853
14.4792
13.7731
13.0669
12.3608
11.6546
10.9484
10.2421
9.53584
8.82954
8.12321
7.41687
6.71052
6.00416
5.2978
4.59143
3.88506
3.17869
2.47231
1.76594
1.05956
0.353186
26.2741
26.0641
25.7114
25.2524
24.7173
24.1286
23.5026
22.8507
22.181
21.4991
20.8089
20.1131
19.4135
18.7114
18.0076
17.3027
16.5972
15.8913
15.1853
14.4792
13.7731
13.0669
12.3608
11.6546
10.9484
10.2421
9.53583
8.82953
8.1232
7.41687
6.71052
6.00416
5.2978
4.59143
3.88506
3.17869
2.47231
1.76594
1.05956
0.353187
26.2155
26.0328
25.6947
25.2436
24.7127
24.1263
23.5015
22.8503
22.1809
21.4992
20.8091
20.1133
19.4136
18.7115
18.0077
17.3028
16.5973
15.8914
15.1854
14.4792
13.7731
13.0669
12.3608
11.6546
10.9484
10.2421
9.53583
8.82952
8.1232
7.41687
6.71052
6.00416
5.2978
4.59143
3.88506
3.17869
2.47231
1.76594
1.05956
0.353188
26.2739
26.064
25.7113
25.2523
24.7172
24.1285
23.5024
22.8505
22.1808
21.4988
20.8086
20.1127
19.4131
18.7109
18.0071
17.3022
16.5967
15.8909
15.1849
14.4788
13.7727
13.0666
12.3605
11.6544
10.9482
10.242
9.53571
8.82944
8.12314
7.41682
6.71048
6.00414
5.29778
4.59142
3.88505
3.17868
2.47231
1.76594
1.05957
0.35319
26.3246
26.0749
25.7053
25.2406
24.7049
24.1175
23.4933
22.8433
22.1752
21.4947
20.8055
20.1105
19.4114
18.7097
18.0063
17.3016
16.5963
15.8906
15.1847
14.4787
13.7726
13.0666
12.3605
11.6543
10.9481
10.2419
9.5357
8.82942
8.12313
7.41681
6.71048
6.00413
5.29778
4.59142
3.88505
3.17868
2.47231
1.76594
1.05957
0.35319
26.4448
26.146
25.7466
25.2642
24.718
24.1246
23.497
22.845
22.1758
21.4947
20.8053
20.1101
19.4111
18.7094
18.006
17.3014
16.5961
15.8905
15.1846
14.4786
13.7726
13.0665
12.3604
11.6543
10.9481
10.2419
9.53569
8.82942
8.12312
7.41681
6.71047
6.00413
5.29777
4.59141
3.88505
3.17868
2.47231
1.76594
1.05957
0.35319
26.6066
26.254
25.8183
25.3115
24.749
24.1448
23.51
22.8533
22.1811
21.498
20.8073
20.1114
19.4118
18.7098
18.0062
17.3015
16.5961
15.8904
15.1845
14.4785
13.7725
13.0665
12.3604
11.6543
10.9481
10.2419
9.5357
8.82943
8.12313
7.41681
6.71048
6.00413
5.29778
4.59142
3.88505
3.17868
2.47231
1.76594
1.05957
0.353191
26.7846
26.3795
25.9062
25.3724
24.7908
24.1731
23.5291
22.8661
22.1895
21.5035
20.8109
20.1137
19.4133
18.7107
18.0067
17.3017
16.5962
15.8904
15.1845
14.4785
13.7725
13.0665
12.3604
11.6543
10.9482
10.242
9.53572
8.82945
8.12314
7.41682
6.71048
6.00414
5.29778
4.59142
3.88505
3.17868
2.47231
1.76594
1.05957
0.353191
26.9585
26.5067
25.998
25.4378
24.8368
24.2051
23.5511
22.8811
22.1996
21.5103
20.8154
20.1166
19.4152
18.712
18.0074
17.3021
16.5963
15.8904
15.1844
14.4785
13.7725
13.0665
12.3605
11.6544
10.9482
10.242
9.53575
8.82947
8.12316
7.41684
6.71049
6.00414
5.29779
4.59142
3.88506
3.17869
2.47231
1.76594
1.05957
0.353192
27.1133
26.6228
26.0837
25.5
24.8812
24.2365
23.5729
22.8961
22.2099
21.5172
20.82
20.1197
19.4173
18.7133
18.0082
17.3025
16.5965
15.8904
15.1844
14.4784
13.7725
13.0665
12.3605
11.6544
10.9482
10.242
9.53578
8.8295
8.12318
7.41685
6.71051
6.00415
5.29779
4.59143
3.88506
3.17869
2.47232
1.76594
1.05957
0.353192
27.238
26.7179
26.155
25.5524
24.9191
24.2635
23.5919
22.9092
22.2189
21.5233
20.8241
20.1225
19.4191
18.7145
18.009
17.3029
16.5967
15.8905
15.1844
14.4784
13.7725
13.0665
12.3605
11.6544
10.9483
10.2421
9.53582
8.82952
8.1232
7.41687
6.71052
6.00416
5.2978
4.59143
3.88506
3.17869
2.47232
1.76594
1.05957
0.353192
27.3252
26.7851
26.2058
25.5901
24.9466
24.2832
23.6058
22.919
22.2256
21.5279
20.8272
20.1246
19.4206
18.7154
18.0096
17.3033
16.5968
15.8905
15.1844
14.4784
13.7725
13.0666
12.3606
11.6545
10.9483
10.2421
9.53585
8.82955
8.12322
7.41688
6.71053
6.00417
5.2978
4.59143
3.88506
3.17869
2.47232
1.76595
1.05957
0.353192
27.3699
26.8199
26.2323
25.6098
24.9611
24.2936
23.6132
22.9241
22.2292
21.5303
20.8289
20.1258
19.4213
18.716
18.0099
17.3034
16.5969
15.8905
15.1844
14.4784
13.7725
13.0666
12.3606
11.6545
10.9484
10.2421
9.53587
8.82957
8.12324
7.41689
6.71054
6.00417
5.29781
4.59144
3.88507
3.17869
2.47232
1.76595
1.05957
0.353191
27.3699
26.8199
26.2323
25.6099
24.9611
24.2936
23.6132
22.9241
22.2292
21.5303
20.8289
20.1258
19.4214
18.716
18.0099
17.3035
16.597
15.8906
15.1844
14.4785
13.7726
13.0666
12.3606
11.6545
10.9484
10.2422
9.53588
8.82958
8.12325
7.4169
6.71054
6.00418
5.29781
4.59144
3.88507
3.17869
2.47232
1.76595
1.05957
0.353191
27.3252
26.7852
26.2059
25.5902
24.9467
24.2832
23.6059
22.919
22.2257
21.528
20.8273
20.1247
19.4207
18.7156
18.0097
17.3034
16.597
15.8906
15.1845
14.4785
13.7726
13.0667
12.3606
11.6546
10.9484
10.2422
9.53589
8.82958
8.12325
7.4169
6.71054
6.00418
5.29781
4.59144
3.88507
3.17869
2.47232
1.76595
1.05957
0.353191
27.2381
26.718
26.155
25.5525
24.9192
24.2635
23.592
22.9093
22.219
21.5234
20.8243
20.1227
19.4193
18.7147
18.0092
17.3032
16.5969
15.8907
15.1846
14.4786
13.7727
13.0667
12.3607
11.6546
10.9484
10.2422
9.53588
8.82957
8.12324
7.4169
6.71054
6.00418
5.29781
4.59144
3.88507
3.17869
2.47232
1.76595
1.05957
0.35319
27.1134
26.6228
26.0838
25.5001
24.8813
24.2366
23.5731
22.8962
22.21
21.5173
20.8202
20.1199
19.4175
18.7136
18.0086
17.3029
16.5968
15.8907
15.1847
14.4787
13.7727
13.0667
12.3607
11.6545
10.9484
10.2421
9.53586
8.82956
8.12323
7.41689
6.71053
6.00417
5.29781
4.59144
3.88506
3.17869
2.47232
1.76595
1.05957
0.35319
26.9586
26.5068
25.9981
25.4379
24.8369
24.2052
23.5512
22.8812
22.1998
21.5105
20.8156
20.1169
19.4155
18.7123
18.0078
17.3025
16.5967
15.8908
15.1848
14.4788
13.7728
13.0667
12.3607
11.6545
10.9483
10.2421
9.53584
8.82954
8.12322
7.41688
6.71053
6.00417
5.2978
4.59143
3.88506
3.17869
2.47232
1.76594
1.05957
0.353189
26.7847
26.3796
25.9063
25.3725
24.7909
24.1733
23.5293
22.8663
22.1897
21.5038
20.8112
20.114
19.4137
18.7111
18.0071
17.3022
16.5966
15.8908
15.1849
14.4789
13.7728
13.0668
12.3607
11.6545
10.9483
10.2421
9.53583
8.82953
8.12321
7.41687
6.71052
6.00416
5.2978
4.59143
3.88506
3.17869
2.47232
1.76594
1.05957
0.353189
26.6068
26.2541
25.8184
25.3116
24.7491
24.1449
23.5102
22.8535
22.1813
21.4982
20.8076
20.1117
19.4122
18.7103
18.0066
17.3019
16.5966
15.8908
15.1849
14.4789
13.7729
13.0668
12.3607
11.6545
10.9483
10.2421
9.53581
8.82952
8.1232
7.41686
6.71051
6.00416
5.29779
4.59143
3.88506
3.17869
2.47231
1.76594
1.05957
0.353188
26.4449
26.1461
25.7467
25.2643
24.7182
24.1247
23.4971
22.8452
22.1761
21.495
20.8056
20.1105
19.4115
18.7099
18.0065
17.3019
16.5966
15.8909
15.185
14.479
13.7729
13.0668
12.3607
11.6545
10.9483
10.2421
9.53581
8.82951
8.12319
7.41686
6.71051
6.00415
5.29779
4.59143
3.88506
3.17869
2.47231
1.76594
1.05957
0.353188
26.3248
26.075
25.7054
25.2408
24.705
24.1176
23.4935
22.8435
22.1755
21.4949
20.8058
20.1108
19.4118
18.7102
18.0067
17.3021
16.5968
15.8911
15.1851
14.4791
13.773
13.0669
12.3607
11.6545
10.9483
10.2421
9.53581
8.82951
8.12319
7.41686
6.71051
6.00415
5.29779
4.59143
3.88506
3.17868
2.47231
1.76594
1.05956
0.353187
26.274
26.0641
25.7114
25.2524
24.7173
24.1286
23.5026
22.8507
22.181
21.4991
20.8089
20.1131
19.4135
18.7113
18.0075
17.3027
16.5972
15.8913
15.1853
14.4792
13.7731
13.0669
12.3608
11.6546
10.9483
10.2421
9.53582
8.82952
8.1232
7.41686
6.71051
6.00416
5.29779
4.59143
3.88506
3.17868
2.47231
1.76594
1.05956
0.353188
26.394
26.1446
25.7651
25.2881
24.7409
24.1442
23.5128
22.8574
22.1853
21.5018
20.8105
20.1139
19.4138
18.7114
18.0074
17.3023
16.5968
15.8909
15.1848
14.4788
13.7727
13.0666
12.3605
11.6544
10.9482
10.242
9.53572
8.82945
8.12315
7.41682
6.71049
6.00414
5.29778
4.59142
3.88505
3.17869
2.47231
1.76594
1.05957
0.353191
26.4448
26.146
25.7466
25.2642
24.718
24.1246
23.497
22.845
22.1758
21.4947
20.8053
20.1101
19.4111
18.7094
18.006
17.3014
16.5961
15.8905
15.1846
14.4786
13.7726
13.0665
12.3604
11.6543
10.9481
10.2419
9.53569
8.82942
8.12312
7.41681
6.71047
6.00413
5.29777
4.59141
3.88505
3.17868
2.47231
1.76594
1.05957
0.35319
26.5654
26.2122
25.7801
25.2795
24.7236
24.1253
23.4954
22.8426
22.1733
21.4924
20.8033
20.1085
19.4099
18.7085
18.0053
17.3009
16.5957
15.8902
15.1844
14.4785
13.7725
13.0665
12.3604
11.6543
10.9481
10.2419
9.53568
8.82941
8.12311
7.4168
6.71047
6.00412
5.29777
4.59141
3.88505
3.17868
2.47231
1.76594
1.05956
0.35319
26.731
26.3188
25.8476
25.3216
24.7495
24.141
23.5047
22.8479
22.1762
21.4939
20.804
20.1088
19.4098
18.7083
18.0051
17.3007
16.5955
15.89
15.1842
14.4783
13.7724
13.0664
12.3604
11.6543
10.9481
10.2419
9.53567
8.82941
8.12311
7.4168
6.71047
6.00412
5.29777
4.59141
3.88505
3.17868
2.47231
1.76594
1.05956
0.35319
26.9149
26.4453
25.9337
25.3796
24.7881
24.1664
23.5213
22.8586
22.183
21.4981
20.8066
20.1103
19.4108
18.7088
18.0053
17.3007
16.5954
15.8899
15.1841
14.4783
13.7724
13.0664
12.3604
11.6543
10.9481
10.2419
9.53569
8.82942
8.12312
7.4168
6.71047
6.00412
5.29777
4.59141
3.88505
3.17868
2.47231
1.76594
1.05956
0.35319
27.0956
26.5746
26.0252
25.4435
24.8322
24.1965
23.5415
22.8721
22.1919
21.5039
20.8103
20.1127
19.4123
18.7097
18.0058
17.3009
16.5955
15.8898
15.184
14.4782
13.7723
13.0664
12.3604
11.6543
10.9481
10.2419
9.53571
8.82943
8.12313
7.41681
6.71048
6.00413
5.29777
4.59141
3.88505
3.17868
2.47231
1.76594
1.05956
0.35319
27.2569
26.6931
26.1111
25.5049
24.8755
24.2266
23.5622
22.8861
22.2012
21.5101
20.8144
20.1154
19.414
18.7108
18.0064
17.3012
16.5955
15.8897
15.1839
14.4781
13.7723
13.0664
12.3604
11.6543
10.9482
10.242
9.53573
8.82946
8.12315
7.41682
6.71048
6.00413
5.29778
4.59141
3.88505
3.17868
2.47231
1.76594
1.05956
0.35319
27.3871
26.7904
26.1829
25.557
24.9128
24.2528
23.5804
22.8986
22.2097
21.5157
20.8181
20.1179
19.4157
18.7119
18.007
17.3015
16.5956
15.8897
15.1839
14.4781
13.7723
13.0664
12.3604
11.6544
10.9482
10.242
9.53576
8.82948
8.12317
7.41684
6.71049
6.00414
5.29778
4.59142
3.88505
3.17868
2.47231
1.76594
1.05956
0.35319
27.478
26.8592
26.2342
25.5946
24.9399
24.2721
23.5939
22.9079
22.216
21.52
20.821
20.1198
19.417
18.7128
18.0075
17.3017
16.5956
15.8896
15.1838
14.4781
13.7723
13.0664
12.3605
11.6544
10.9483
10.242
9.53579
8.8295
8.12318
7.41685
6.7105
6.00415
5.29779
4.59142
3.88505
3.17868
2.47231
1.76594
1.05956
0.35319
27.5246
26.8948
26.2609
25.6143
24.9541
24.2822
23.601
22.9128
22.2194
21.5223
20.8225
20.1209
19.4177
18.7132
18.0078
17.3019
16.5957
15.8896
15.1838
14.4781
13.7723
13.0665
12.3605
11.6544
10.9483
10.2421
9.53581
8.82952
8.1232
7.41686
6.71051
6.00415
5.29779
4.59142
3.88505
3.17868
2.47231
1.76594
1.05956
0.35319
27.5246
26.8948
26.2609
25.6143
24.9542
24.2823
23.6011
22.9128
22.2194
21.5223
20.8226
20.1209
19.4178
18.7133
18.0079
17.3019
16.5958
15.8897
15.1839
14.4781
13.7724
13.0665
12.3605
11.6545
10.9483
10.2421
9.53582
8.82953
8.1232
7.41687
6.71051
6.00416
5.29779
4.59143
3.88505
3.17868
2.47231
1.76594
1.05956
0.353189
27.478
26.8593
26.2342
25.5947
24.9399
24.2721
23.5939
22.9079
22.2161
21.5201
20.8211
20.1199
19.4171
18.7129
18.0077
17.3019
16.5958
15.8898
15.184
14.4782
13.7724
13.0665
12.3605
11.6545
10.9483
10.2421
9.53583
8.82953
8.12321
7.41687
6.71052
6.00416
5.29779
4.59143
3.88506
3.17868
2.47231
1.76594
1.05956
0.353189
27.3871
26.7905
26.1829
25.5571
24.9128
24.2529
23.5805
22.8986
22.2098
21.5158
20.8183
20.1181
19.4159
18.7121
18.0073
17.3017
16.5958
15.8899
15.1841
14.4783
13.7725
13.0666
12.3606
11.6545
10.9483
10.2421
9.53582
8.82952
8.1232
7.41687
6.71052
6.00416
5.29779
4.59143
3.88506
3.17868
2.47231
1.76594
1.05956
0.353189
27.257
26.6931
26.1112
25.505
24.8756
24.2267
23.5623
22.8862
22.2014
21.5102
20.8146
20.1156
19.4143
18.7111
18.0067
17.3015
16.5958
15.89
15.1842
14.4784
13.7725
13.0666
12.3606
11.6545
10.9483
10.2421
9.53581
8.82952
8.1232
7.41686
6.71051
6.00416
5.29779
4.59142
3.88505
3.17868
2.47231
1.76593
1.05956
0.353189
27.0957
26.5747
26.0253
25.4436
24.8323
24.1966
23.5417
22.8722
22.192
21.5041
20.8105
20.113
19.4126
18.7101
18.0062
17.3013
16.5959
15.8901
15.1843
14.4785
13.7726
13.0666
12.3606
11.6545
10.9483
10.2421
9.5358
8.82951
8.12319
7.41686
6.71051
6.00415
5.29779
4.59142
3.88505
3.17868
2.47231
1.76593
1.05956
0.353189
26.915
26.4454
25.9339
25.3797
24.7882
24.1665
23.5214
22.8587
22.1832
21.4983
20.8068
20.1106
19.4111
18.7092
18.0057
17.3011
16.5959
15.8903
15.1845
14.4786
13.7727
13.0667
12.3606
11.6545
10.9483
10.2421
9.53579
8.8295
8.12318
7.41685
6.7105
6.00415
5.29779
4.59142
3.88505
3.17868
2.47231
1.76593
1.05956
0.353189
26.7311
26.3189
25.8478
25.3218
24.7496
24.1411
23.5049
22.8481
22.1765
21.4941
20.8043
20.1091
19.4102
18.7088
18.0055
17.3011
16.596
15.8904
15.1846
14.4787
13.7727
13.0667
12.3606
11.6545
10.9483
10.242
9.53578
8.82949
8.12318
7.41685
6.7105
6.00415
5.29779
4.59142
3.88505
3.17868
2.47231
1.76594
1.05956
0.353189
26.5656
26.2123
25.7802
25.2796
24.7237
24.1254
23.4956
22.8428
22.1735
21.4927
20.8036
20.1089
19.4103
18.7089
18.0057
17.3014
16.5962
15.8906
15.1848
14.4789
13.7728
13.0668
12.3606
11.6545
10.9483
10.2421
9.53579
8.82949
8.12318
7.41685
6.7105
6.00415
5.29779
4.59142
3.88505
3.17868
2.47231
1.76594
1.05956
0.353188
26.4449
26.1461
25.7467
25.2643
24.7182
24.1247
23.4971
22.8452
22.1761
21.495
20.8056
20.1105
19.4115
18.7099
18.0065
17.3019
16.5966
15.8909
15.185
14.479
13.7729
13.0668
12.3607
11.6545
10.9483
10.2421
9.5358
8.8295
8.12319
7.41685
6.71051
6.00415
5.29779
4.59142
3.88505
3.17868
2.47231
1.76594
1.05956
0.353188
26.3942
26.1447
25.7652
25.2882
24.741
24.1444
23.513
22.8575
22.1855
21.502
20.8108
20.1143
19.4142
18.7118
18.0078
17.3028
16.5972
15.8913
15.1853
14.4792
13.773
13.0669
12.3608
11.6546
10.9484
10.2421
9.53583
8.82952
8.1232
7.41686
6.71051
6.00416
5.29779
4.59143
3.88506
3.17868
2.47231
1.76594
1.05956
0.353188
26.55
26.2561
25.8433
25.3423
24.7783
24.1698
23.5302
22.8691
22.1932
21.507
20.814
20.1162
19.4154
18.7123
18.0079
17.3027
16.5969
15.8909
15.1848
14.4788
13.7727
13.0666
12.3605
11.6544
10.9482
10.242
9.53575
8.82947
8.12316
7.41683
6.71049
6.00414
5.29779
4.59142
3.88506
3.17869
2.47231
1.76594
1.05957
0.353191
26.6066
26.254
25.8183
25.3115
24.749
24.1448
23.51
22.8533
22.1811
21.498
20.8073
20.1114
19.4118
18.7098
18.0062
17.3015
16.5961
15.8904
15.1845
14.4785
13.7725
13.0665
12.3604
11.6543
10.9481
10.2419
9.5357
8.82943
8.12313
7.41681
6.71048
6.00413
5.29778
4.59142
3.88505
3.17868
2.47231
1.76594
1.05957
0.353191
26.731
26.3188
25.8476
25.3216
24.7495
24.141
23.5047
22.8479
22.1762
21.4939
20.804
20.1088
19.4098
18.7083
18.0051
17.3007
16.5955
15.89
15.1842
14.4783
13.7724
13.0664
12.3604
11.6543
10.9481
10.2419
9.53567
8.82941
8.12311
7.4168
6.71047
6.00412