# vtk DataFile Version 2.0
I need something to put here
ASCII

DATASET STRUCTURED_GRID
DIMENSIONS 41 21 21
POINTS 18081 float
0.000000 0.000000 0.000000
0.100000 0.000000 0.000000
0.200000 0.000000 0.000000
0.300000 0.000000 0.000000
0.400000 0.000000 0.000000
0.500000 0.000000 0.000000
0.600000 0.000000 0.000000
0.700000 0.000000 0.000000
0.800000 0.000000 0.000000
0.900000 0.000000 0.000000
1.000000 0.000000 0.000000
1.100000 0.000000 0.000000
1.200000 0.000000 0.000000
1.300000 0.000000 0.000000
1.400000 0.000000 0.000000
1.500000 0.000000 0.000000
1.600000 0.000000 0.000000
1.700000 0.000000 0.000000
1.800000 0.000000 0.000000
1.900000 0.000000 0.000000
2.000000 0.000000 0.000000
2.100000 0.000000 0.000000
2.200000 0.000000 0.000000
2.300000 0.000000 0.000000
2.400000 0.000000 0.000000
2.500000 0.000000 0.000000
2.600000 0.000000 0.000000
2.700000 0.000000 0.000000
2.800000 0.000000 0.000000
2.900000 0.000000 0.000000
3.000000 0.000000 0.000000
3.100000 0.000000 0.000000
3.200000 0.000000 0.000000
3.300000 0.000000 0.000000
3.400000 0.000000 0.000000
3.500000 0.000000 0.000000
3.600000 0.000000 0.000000
3.700000 0.000000 0.000000
3.800000 0.000000 0.000000
3.900000 0.000000 0.000000
4.000000 0.000000 0.000000
0.000000 0.100000 0.000000
0.100000 0.100000 0.000000
0.200000 0.100000 0.000000
0.300000 0.100000 0.000000
0.400000 0.100000 0.000000
0.500000 0.100000 0.000000
0.600000 0.100000 0.000000
0.700000 0.100000 0.000000
0.800000 0.100000 0.000000
0.900000 0.100000 0.000000
1.000000 0.100000 0.000000
1.100000 0.100000 0.000000
1.200000 0.100000 0.000000
1.300000 0.100000 0.000000
1.400000 0.100000 0.000000
1.500000 0.100000 0.000000
1.600000 0.100000 0.000000
1.700000 0.100000 0.000000
1.800000 0.100000 0.000000
1.900000 0.100000 0.000000
2.000000 0.100000 0.000000
2.100000 0.100000 0.000000
2.200000 0.100000 0.000000
2.300000 0.100000 0.000000
2.400000 0.100000 0.000000
2.500000 0.100000 0.000000
2.600000 0.100000 0.000000
2.700000 0.100000 0.000000
2.800000 0.100000 0.000000
2.900000 0.100000 0.000000
3.000000 0.100000 0.000000
3.100000 0.100000 0.000000
3.200000 0.100000 0.000000
3.300000 0.100000 0.000000
3.400000 0.100000 0.000000
3.500000 0.100000 0.000000
3.600000 0.100000 0.000000
3.700000 0.100000 0.000000
3.800000 0.100000 0.000000
3.900000 0.100000 0.000000
4.000000 0.100000 0.000000
0.000000 0.200000 0.000000
0.100000 0.200000 0.000000
0.200000 0.200000 0.000000
0.300000 0.200000 0.000000
0.400000 0.200000 0.000000
0.500000 0.200000 0.000000
0.600000 0.200000 0.000000
0.700000 0.200000 0.000000
0.800000 0.200000 0.000000
0.900000 0.200000 0.000000
1.000000 0.200000 0.000000
1.100000 0.200000 0.000000
1.200000 0.200000 0.000000
1.300000 0.200000 0.000000
1.400000 0.200000 0.000000
1.500000 0.200000 0.000000
1.600000 0.200000 0.000000
1.700000 0.200000 0.000000
1.800000 0.200000 0.000000
1.900000 0.200000 0.000000
2.000000 0.200000 0.000000
2.100000 0.200000 0.000000
2.200000 0.200000 0.000000
2.300000 0.200000 0.000000
2.400000 0.200000 0.000000
2.500000 0.200000 0.000000
2.600000 0.200000 0.000000
2.700000 0.200000 0.000000
2.800000 0.200000 0.000000
2.900000 0.200000 0.000000
3.000000 0.200000 0.000000
3.100000 0.200000 0.000000
3.200000 0.200000 0.000000
3.300000 0.200000 0.000000
3.400000 0.200000 0.000000
3.500000 0.200000 0.000000
3.600000 0.200000 0.000000
3.700000 0.200000 0.000000
3.800000 0.200000 0.000000
3.900000 0.200000 0.000000
4.000000 0.200000 0.000000
0.000000 0.300000 0.000000
0.100000 0.300000 0.000000
0.200000 0.300000 0.000000
0.300000 0.300000 0.000000
0.400000 0.300000 0.000000
0.500000 0.300000 0.000000
0.600000 0.300000 0.000000
0.700000 0.300000 0.000000
0.800000 0.300000 0.000000
0.900000 0.300000 0.000000
1.000000 0.300000 0.000000
1.100000 0.300000 0.000000
1.200000 0.300000 0.000000
1.300000 0.300000 0.000000
1.400000 0.300000 0.000000
1.500000 0.300000 0.000000
1.600000 0.300000 0.000000
1.700000 0.300000 0.000000
1.800000 0.300000 0.000000
1.900000 0.300000 0.000000
2.000000 0.300000 0.000000
2.100000 0.300000 0.000000
2.200000 0.300000 0.000000
2.300000 0.300000 0.000000
2.400000 0.300000 0.000000
2.500000 0.300000 0.000000
2.600000 0.300000 0.000000
2.700000 0.300000 0.000000
2.800000 0.300000 0.000000
2.900000 0.300000 0.000000
3.000000 0.300000 0.000000
3.100000 0.300000 0.000000
3.200000 0.300000 0.000000
3.300000 0.300000 0.000000
3.400000 0.300000 0.000000
3.500000 0.300000 0.000000
3.600000 0.300000 0.000000
3.700000 0.300000 0.000000
3.800000 0.300000 0.000000
3.900000 0.300000 0.000000
4.000000 0.300000 0.000000
0.000000 0.400000 0.000000
0.100000 0.400000 0.000000
0.200000 0.400000 0.000000
0.300000 0.400000 0.000000
0.400000 0.400000 0.000000
0.500000 0.400000 0.000000
0.600000 0.400000 0.000000
0.700000 0.400000 0.000000
0.800000 0.400000 0.000000
0.900000 0.400000 0.000000
1.000000 0.400000 0.000000
1.100000 0.400000 0.000000
1.200000 0.400000 0.000000
1.300000 0.400000 0.000000
1.400000 0.400000 0.000000
1.500000 0.400000 0.000000
1.600000 0.400000 0.000000
1.700000 0.400000 0.000000
1.800000 0.400000 0.000000
1.900000 0.400000 0.000000
2.000000 0.400000 0.000000
2.100000 0.400000 0.000000
2.200000 0.400000 0.000000
2.300000 0.400000 0.000000
2.400000 0.400000 0.000000
2.500000 0.400000 0.000000
2.600000 0.400000 0.000000
2.700000 0.400000 0.000000
2.800000 0.400000 0.000000
2.900000 0.400000 0.000000
3.000000 0.400000 0.000000
3.100000 0.400000 0.000000
3.200000 0.400000 0.000000
3.300000 0.400000 0.000000
3.400000 0.400000 0.000000
3.500000 0.400000 0.000000
3.600000 0.400000 0.000000
3.700000 0.400000 0.000000
3.800000 0.400000 0.000000
3.900000 0.400000 0.000000
4.000000 0.400000 0.000000
0.000000 0.500000 0.000000
0.100000 0.500000 0.000000
0.200000 0.500000 0.000000
0.300000 0.500000 0.000000
0.400000 0.500000 0.000000
0.500000 0.500000 0.000000
0.600000 0.500000 0.000000
0.700000 0.500000 0.000000
0.800000 0.500000 0.000000
0.900000 0.500000 0.000000
1.000000 0.500000 0.000000
1.100000 0.500000 0.000000
1.200000 0.500000 0.000000
1.300000 0.500000 0.000000
1.400000 0.500000 0.000000
1.500000 0.500000 0.000000
1.600000 0.500000 0.000000
1.700000 0.500000 0.000000
1.800000 0.500000 0.000000
1.900000 0.500000 0.000000
2.000000 0.500000 0.000000
2.100000 0.500000 0.000000
2.200000 0.500000 0.000000
2.300000 0.500000 0.000000
2.400000 0.500000 0.000000
2.500000 0.500000 0.000000
2.600000 0.500000 0.000000
2.700000 0.500000 0.000000
2.800000 0.500000 0.000000
2.900000 0.500000 0.000000
3.000000 0.500000 0.000000
3.100000 0.500000 0.000000
3.200000 0.500000 0.000000
3.300000 0.500000 0.000000
3.400000 0.500000 0.000000
3.500000 0.500000 0.000000
3.600000 0.500000 0.000000
3.700000 0.500000 0.000000
3.800000 0.500000 0.000000
3.900000 0.500000 0.000000
4.000000 0.500000 0.000000
0.000000 0.600000 0.000000
0.100000 0.600000 0.000000
0.200000 0.600000 0.000000
0.300000 0.600000 0.000000
0.400000 0.600000 0.000000
0.500000 0.600000 0.000000
0.600000 0.600000 0.000000
0.700000 0.600000 0.000000
0.800000 0.600000 0.000000
0.900000 0.600000 0.000000
1.000000 0.600000 0.000000
1.100000 0.600000 0.000000
1.200000 0.600000 0.000000
1.300000 0.600000 0.000000
1.400000 0.600000 0.000000
1.500000 0.600000 0.000000
1.600000 0.600000 0.000000
1.700000 0.600000 0.000000
1.800000 0.600000 0.000000
1.900000 0.600000 0.000000
2.000000 0.600000 0.000000
2.100000 0.600000 0.000000
2.200000 0.600000 0.000000
2.300000 0.600000 0.000000
2.400000 0.600000 0.000000
2.500000 0.600000 0.000000
2.600000 0.600000 0.000000
2.700000 0.600000 0.000000
2.800000 0.600000 0.000000
2.900000 0.600000 0.000000
3.000000 0.600000 0.000000
3.100000 0.600000 0.000000
3.200000 0.600000 0.000000
3.300000 0.600000 0.000000
3.400000 0.600000 0.000000
3.500000 0.600000 0.000000
3.600000 0.600000 0.000000
3.700000 0.600000 0.000000
3.800000 0.600000 0.000000
3.900000 0.600000 0.000000
4.000000 0.600000 0.000000
0.000000 0.700000 0.000000
0.100000 0.700000 0.000000
0.200000 0.700000 0.000000
0.300000 0.700000 0.000000
0.400000 0.700000 0.000000
0.500000 0.700000 0.000000
0.600000 0.700000 0.000000
0.700000 0.700000 0.000000
0.800000 0.700000 0.000000
0.900000 0.700000 0.000000
1.000000 0.700000 0.000000
1.100000 0.700000 0.000000
1.200000 0.700000 0.000000
1.300000 0.700000 0.000000
1.400000 0.700000 0.000000
1.500000 0.700000 0.000000
1.600000 0.700000 0.000000
1.700000 0.700000 0.000000
1.800000 0.700000 0.000000
1.900000 0.700000 0.000000
2.000000 0.700000 0.000000
2.100000 0.700000 0.000000
2.200000 0.700000 0.000000
2.300000 0.700000 0.000000
2.400000 0.700000 0.000000
2.500000 0.700000 0.000000
2.600000 0.700000 0.000000
2.700000 0.700000 0.000000
2.800000 0.700000 0.000000
2.900000 0.700000 0.000000
3.000000 0.700000 0.000000
3.100000 0.700000 0.000000
3.200000 0.700000 0.000000
3.300000 0.700000 0.000000
3.400000 0.700000 0.000000
3.500000 0.700000 0.000000
3.600000 0.700000 0.000000
3.700000 0.700000 0.000000
3.800000 0.700000 0.000000
3.900000 0.700000 0.000000
4.000000 0.700000 0.000000
0.000000 0.800000 0.000000
0.100000 0.800000 0.000000
0.200000 0.800000 0.000000
0.300000 0.800000 0.000000
0.400000 0.800000 0.000000
0.500000 0.800000 0.000000
0.600000 0.800000 0.000000
0.700000 0.800000 0.000000
0.800000 0.800000 0.000000
0.900000 0.800000 0.000000
1.000000 0.800000 0.000000
1.100000 0.800000 0.000000
1.200000 0.800000 0.000000
1.300000 0.800000 0.000000
1.400000 0.800000 0.000000
1.500000 0.800000 0.000000
1.600000 0.800000 0.000000
1.700000 0.800000 0.000000
1.800000 0.800000 0.000000
1.900000 0.800000 0.000000
2.000000 0.800000 0.000000
2.100000 0.800000 0.000000
2.200000 0.800000 0.000000
2.300000 0.800000 0.000000
2.400000 0.800000 0.000000
2.500000 0.800000 0.000000
2.600000 0.800000 0.000000
2.700000 0.800000 0.000000
2.800000 0.800000 0.000000
2.900000 0.800000 0.000000
3.000000 0.800000 0.000000
3.100000 0.800000 0.000000
3.200000 0.800000 0.000000
3.300000 0.800000 0.000000
3.400000 0.800000 0.000000
3.500000 0.800000 0.000000
3.600000 0.800000 0.000000
[...]
CELL_DATA 16000
SCALARS pressure float 1
LOOKUP_TABLE default
26.1021
25.9192
25.5812
25.1305
24.6008
24.0166
23.3952
22.7487
22.0858
21.4122
20.7319
20.0474
19.3599
18.6701
17.9779
17.2834
16.5864
15.8871
15.1855
14.4821
13.7774
13.0716
12.3652
11.6584
10.9515
10.2445
9.53765
8.83084
8.12413
7.41749
6.71093
6.00442
5.29795
4.59152
3.88511
3.17871
2.47232
1.76594
1.05956
0.353186
26.1607
25.9505
25.5979
25.1394
24.6054
24.0189
23.3962
22.749
22.0857
21.412
20.7317
20.0471
19.3597
18.6699
17.9779
17.2834
16.5865
15.8871
15.1855
14.4821
13.7773
13.0715
12.3651
11.6584
10.9514
10.2445
9.53763
8.83083
8.12412
7.41749
6.71092
6.00442
5.29795
4.59152
3.88511
3.17871
2.47232
1.76594
1.05956
0.353186
26.2808
26.031
25.6514
25.1748
24.6288
24.0341
23.406
22.7552
22.0894
21.4141
20.7329
20.048
19.3604
18.6707
17.9788
17.2844
16.5875
15.888
15.1863
14.4827
13.7777
13.0718
12.3652
11.6584
10.9514
10.2445
9.53758
8.83078
8.12407
7.41745
6.7109
6.0044
5.29794
4.59151
3.8851
3.1787
2.47232
1.76594
1.05956
0.353185
26.4365
26.1422
25.7292
25.2285
24.6654
24.0587
23.4222
22.7656
22.0959
21.418
20.7352
20.0496
19.3619
18.6723
17.9806
17.2863
16.5894
15.8897
15.1877
14.4838
13.7784
13.0722
12.3654
11.6584
10.9514
10.2444
9.53749
8.83069
8.124
7.41739
6.71085
6.00437
5.29792
4.59149
3.88509
3.1787
2.47231
1.76594
1.05956
0.353184
26.6056
26.2678
25.8198
25.2925
24.7099
24.0891
23.4424
22.7786
22.104
21.4228
20.7382
20.0516
19.3638
18.6745
17.9831
17.2891
16.5921
15.8922
15.1897
14.4852
13.7794
13.0727
12.3657
11.6585
10.9513
10.2443
9.53736
8.83058
8.1239
7.41731
6.71079
6.00432
5.29788
4.59147
3.88507
3.17869
2.47231
1.76593
1.05956
0.353184
26.7703
26.3936
25.9125
25.3592
24.7569
24.1215
23.4642
22.7927
22.1127
21.428
20.7413
20.0539
19.3661
18.6772
17.9863
17.2925
16.5954
15.8951
15.1921
14.4869
13.7805
13.0733
12.3659
11.6585
10.9512
10.2441
9.53721
8.83044
8.12378
7.41722
6.71072
6.00427
5.29785
4.59145
3.88506
3.17868
2.4723
1.76593
1.05956
0.353183
26.9168
26.5078
25.9982
25.4218
24.8014
24.1525
23.4851
22.8062
22.121
21.4328
20.7442
20.0561
19.3684
18.68
17.9896
17.2961
16.599
15.8982
15.1945
14.4887
13.7816
13.0739
12.3662
11.6585
10.9511
10.244
9.53705
8.83029
8.12366
7.41713
6.71065
6.00422
5.29781
4.59142
3.88504
3.17867
2.47229
1.76592
1.05955
0.353183
27.0349
26.6012
26.0692
25.4741
24.839
24.1788
23.5028
22.8177
22.128
21.4369
20.7466
20.0579
19.3704
18.6826
17.9927
17.2995
16.6023
15.9011
15.1968
14.4903
13.7826
13.0745
12.3664
11.6585
10.951
10.2438
9.53691
8.83017
8.12356
7.41704
6.71059
6.00417
5.29778
4.5914
3.88503
3.17866
2.47229
1.76592
1.05955
0.353182
27.1176
26.6672
26.1197
25.5116
24.8661
24.1978
23.5157
22.8261
22.1331
21.4399
20.7484
20.0593
19.372
18.6846
17.9952
17.3021
16.6048
15.9034
15.1986
14.4915
13.7833
13.0749
12.3665
11.6585
10.951
10.2437
9.53681
8.83008
8.12349
7.41699
6.71055
6.00414
5.29776
4.59138
3.88502
3.17865
2.47228
1.76592
1.05955
0.353181
27.16
26.7012
26.1459
25.5312
24.8804
24.2079
23.5226
22.8306
22.1359
21.4416
20.7494
20.0602
19.373
18.6859
17.9966
17.3037
16.6064
15.9047
15.1996
14.4922
13.7838
13.0751
12.3666
11.6586
10.951
10.2437
9.53678
8.83005
8.12346
7.41697
6.71053
6.00413
5.29775
4.59138
3.88501
3.17865
2.47228
1.76592
1.05955
0.35318
27.1602
26.7014
26.1461
25.5313
24.8805
24.208
23.5228
22.8308
22.1361
21.4418
20.7497
20.0605
19.3733
18.6861
17.9969
17.304
16.6066
15.9049
15.1998
14.4924
13.784
13.0753
12.3668
11.6587
10.951
10.2438
9.53684
8.83009
8.1235
7.41699
6.71055
6.00415
5.29776
4.59139
3.88502
3.17865
2.47228
1.76592
1.05955
0.353179
27.1179
26.6675
26.12
25.512
24.8665
24.1982
23.5162
22.8266
22.1337
21.4406
20.7491
20.0601
19.3728
18.6855
17.996
17.3029
16.6056
15.9041
15.1992
14.4921
13.7838
13.0753
12.3669
11.6588
10.9512
10.2439
9.53697
8.8302
8.12358
7.41706
6.7106
6.00418
5.29779
4.5914
3.88503
3.17866
2.47229
1.76592
1.05955
0.353178
27.0355
26.6018
26.0697
25.4747
24.8397
24.1795
23.5036
22.8186
22.129
21.438
20.7478
20.0592
19.3717
18.6839
17.994
17.3008
16.6035
15.9022
15.1978
14.4912
13.7834
13.0751
12.3669
11.659
10.9514
10.2442
9.53716
8.83037
8.12371
7.41716
6.71068
6.00424
5.29782
4.59143
3.88505
3.17867
2.47229
1.76592
1.05955
0.353177
26.9176
26.5086
25.999
25.4226
24.8023
24.1534
23.4861
22.8074
22.1222
21.4343
20.7457
20.0577
19.3701
18.6818
17.9914
17.2978
16.6006
15.8997
15.1959
14.4899
13.7826
13.0748
12.3669
11.6592
10.9516
10.2444
9.53739
8.83056
8.12387
7.41728
6.71077
6.0043
5.29787
4.59146
3.88507
3.17868
2.4723
1.76592
1.05955
0.353176
26.7712
26.3945
25.9135
25.3602
24.7579
24.1226
23.4654
22.7941
22.1142
21.4296
20.7431
20.0559
19.3681
18.6793
17.9884
17.2945
16.5974
15.8969
15.1937
14.4884
13.7817
13.0744
12.3668
11.6593
10.9519
10.2446
9.53761
8.83076
8.12403
7.41741
6.71086
6.00437
5.29792
4.59149
3.88509
3.17869
2.47231
1.76593
1.05955
0.353175
26.6066
26.2688
25.8208
25.2936
24.711
24.0903
23.4438
22.7801
22.1056
21.4247
20.7402
20.0538
19.3661
18.6769
17.9855
17.2914
16.5943
15.8942
15.1915
14.4869
13.7808
13.0739
12.3667
11.6593
10.952
10.2448
9.53781
8.83093
8.12417
7.41752
6.71095
6.00443
5.29796
4.59152
3.88511
3.1787
2.47231
1.76593
1.05955
0.353175
26.4376
26.1433
25.7303
25.2296
24.6666
24.06
23.4236
22.7671
22.0976
21.4199
20.7373
20.0518
19.3643
18.6748
17.9831
17.2888
16.5917
15.8919
15.1897
14.4855
13.7799
13.0735
12.3665
11.6593
10.9521
10.245
9.53796
8.83107
8.12429
7.41761
6.71101
6.00448
5.29799
4.59154
3.88512
3.17871
2.47232
1.76593
1.05955
0.353175
26.2819
26.0321
25.6526
25.176
24.63
24.0355
23.4074
22.7568
22.0912
21.4161
20.7351
20.0503
19.3629
18.6732
17.9813
17.2869
16.5898
15.8902
15.1883
14.4845
13.7793
13.0731
12.3664
11.6593
10.9522
10.2451
9.53806
8.83116
8.12436
7.41767
6.71106
6.00451
5.29801
4.59156
3.88513
3.17871
2.47232
1.76593
1.05955
0.353176
26.1618
25.9516
25.599
25.1405
24.6066
24.0202
23.3976
22.7506
22.0875
21.4139
20.7338
20.0494
19.3621
18.6724
17.9804
17.2859
16.5888
15.8893
15.1875
14.4839
13.7789
13.0729
12.3662
11.6593
10.9522
10.2451
9.53811
8.8312
8.1244
7.41769
6.71107
6.00452
5.29802
4.59156
3.88513
3.17871
2.47232
1.76593
1.05955
0.353177
26.1032
25.9203
25.5823
25.1317
24.602
24.0179
23.3966
22.7503
22.0875
21.4141
20.734
20.0496
19.3623
18.6725
17.9804
17.2858
16.5887
15.8892
15.1875
14.4839
13.7789
13.0729
12.3663
11.6593
10.9522
10.2451
9.53811
8.8312
8.12439
7.41769
6.71107
6.00452
5.29802
4.59155
3.88512
3.17871
2.47231
1.76593
1.05955
0.353178
26.1607
25.9505
25.5979
25.1394
24.6054
24.0189
23.3962
22.749
22.0857
21.412
20.7317
20.0471
19.3597
18.6699
17.9779
17.2834
16.5865
15.8871
15.1855
14.4821
13.7773
13.0715
12.3651
11.6584
10.9514
10.2445
9.53763
8.83083
8.12412
7.41749
6.71092
6.00442
5.29795
4.59152
3.88511
3.17871
2.47232
1.76594
1.05956
0.353186
26.2116
25.9616
25.5921
25.128
24.5935
24.0084
23.3877
22.7425
22.0808
21.4084
20.729
20.0451
19.3581
18.6685
17.9766
17.2822
16.5854
15.8861
15.1847
14.4815
13.7768
13.0712
12.3649
11.6582
10.9514
10.2445
9.53762
8.83083
8.12413
7.4175
6.71094
6.00443
5.29796
4.59153
3.88511
3.17871
2.47232
1.76594
1.05956
0.353186
26.3319
26.0327
25.6333
25.1515
24.6066
24.0154
23.3912
22.744
22.0812
21.4082
20.7286
20.0447
19.3578
18.6683
17.9765
17.2823
16.5855
15.8862
15.1848
14.4815
13.7768
13.0711
12.3648
11.6581
10.9513
10.2444
9.53757
8.8308
8.12411
7.41749
6.71093
6.00443
5.29796
4.59153
3.88511
3.17871
2.47232
1.76594
1.05956
0.353186
26.4936
26.1405
25.7047
25.1984
24.6371
24.035
23.4035
22.7515
22.0856
21.4106
20.7299
20.0454
19.3584
18.6691
17.9775
17.2834
16.5866
15.8872
15.1856
14.4821
13.7772
13.0713
12.3649
11.6581
10.9512
10.2443
9.5375
8.83073
8.12405
7.41744
6.7109
6.0044
5.29795
4.59152
3.88511
3.17871
2.47232
1.76594
1.05956
0.353187
26.671
26.2655
25.792
25.2586
24.6781
24.0623
23.4214
22.7628
22.0925
21.4146
20.7322
20.047
19.3598
18.6707
17.9794
17.2854
16.5886
15.889
15.1871
14.4832
13.7779
13.0717
12.365
11.6581
10.9512
10.2442
9.5374
8.83064
8.12397
7.41738
6.71085
6.00437
5.29792
4.5915
3.88509
3.1787
2.47232
1.76594
1.05956
0.353187
26.8442
26.392
25.8832
25.3232
24.723
24.093
23.4418
22.776
22.1006
21.4195
20.7351
20.0491
19.3617
18.6729
17.9818
17.288
16.5911
15.8913
15.1889
14.4845
13.7788
13.0722
12.3653
11.6582
10.9511
10.2441
9.53728
8.83053
8.12388
7.41731
6.71079
6.00433
5.29789
4.59148
3.88508
3.17869
2.47231
1.76594
1.05956
0.353188
26.9982
26.5073
25.968
25.3844
24.7663
24.123
23.4619
22.789
22.1087
21.4243
20.7381
20.0512
19.3638
18.6752
17.9845
17.2909
16.5939
15.8938
15.1909
14.4859
13.7797
13.0727
12.3655
11.6582
10.951
10.244
9.53715
8.83042
8.12378
7.41723
6.71073
6.00428
5.29786
4.59146
3.88507
3.17869
2.47231
1.76594
1.05956
0.353188
27.1222
26.6017
26.0385
25.436
24.8032
24.1487
23.4794
22.8004
22.1158
21.4286
20.7406
20.0531
19.3657
18.6774
17.9871
17.2936
16.5966
15.8961
15.1927
14.4872
13.7805
13.0732
12.3657
11.6582
10.951
10.2439
9.53705
8.83032
8.1237
7.41716
6.71068
6.00425
5.29783
4.59144
3.88506
3.17868
2.4723
1.76593
1.05956
0.353188
27.2087
26.6684
26.0888
25.4731
24.8299
24.1675
23.4921
22.8088
22.1211
21.4317
20.7426
20.0545
19.3672
18.6792
17.9891
17.2958
16.5987
15.8979
15.1941
14.4882
13.7812
13.0735
12.3658
11.6583
10.951
10.2439
9.53698
8.83025
8.12364
7.41712
6.71065
6.00422
5.29782
4.59143
3.88505
3.17867
2.4723
1.76593
1.05956
0.353188
27.2532
26.7029
26.115
25.4925
24.844
24.1774
23.4989
22.8133
22.1239
21.4335
20.7437
20.0554
19.3681
18.6803
17.9903
17.2971
16.5999
15.899
15.195
14.4889
13.7816
13.0738
12.366
11.6583
10.951
10.2439
9.53697
8.83024
8.12363
7.41711
6.71064
6.00422
5.29781
4.59143
3.88505
3.17867
2.4723
1.76593
1.05956
0.353188
27.2533
26.703
26.1151
25.4926
24.8441
24.1775
23.4991
22.8135
22.1241
21.4337
20.7439
20.0557
19.3684
18.6805
17.9906
17.2973
16.6002
15.8992
15.1952
14.489
13.7817
13.0739
12.3661
11.6584
10.9511
10.2439
9.53702
8.83028
8.12366
7.41713
6.71066
6.00423
5.29782
4.59143
3.88505
3.17868
2.4723
1.76593
1.05956
0.353187
27.2091
26.6687
26.0892
25.4734
24.8303
24.1679
23.4926
22.8093
22.1216
21.4323
20.7433
20.0552
19.3679
18.68
17.9899
17.2965
16.5994
15.8986
15.1947
14.4888
13.7816
13.0739
12.3662
11.6586
10.9512
10.2441
9.53713
8.83037
8.12374
7.41719
6.71071
6.00426
5.29785
4.59145
3.88506
3.17868
2.47231
1.76593
1.05956
0.353186
27.1228
26.6023
26.0391
25.4366
24.8038
24.1494
23.4801
22.8012
22.1167
21.4295
20.7417
20.0542
19.3669
18.6786
17.9883
17.2948
16.5977
15.8971
15.1936
14.4881
13.7812
13.0738
12.3662
11.6587
10.9514
10.2442
9.53729
8.83051
8.12385
7.41728
6.71077
6.00431
5.29788
4.59147
3.88508
3.17869
2.47231
1.76594
1.05956
0.353185
26.999
26.508
25.9688
25.3852
24.7671
24.1239
23.4629
22.7901
22.1099
21.4256
20.7395
20.0527
19.3654
18.6768
17.9861
17.2924
16.5954
15.8952
15.1921
14.487
13.7807
13.0736
12.3662
11.6588
10.9515
10.2444
9.53748
8.83067
8.12398
7.41738
6.71085
6.00437
5.29792
4.5915
3.8851
3.1787
2.47232
1.76594
1.05956
0.353183
26.8451
26.3929
25.8841
25.3241
24.724
24.0941
23.4429
22.7772
22.102
21.421
20.7368
20.0509
19.3636
18.6748
17.9837
17.2899
16.5929
15.893
15.1904
14.4859
13.7799
13.0732
12.3661
11.6589
10.9517
10.2446
9.53767
8.83084
8.12412
7.41749
6.71093
6.00443
5.29796
4.59153
3.88511
3.17871
2.47232
1.76594
1.05956
0.353182
26.6721
26.2665
25.7931
25.2597
24.6792
24.0635
23.4226
22.7642
22.094
21.4164
20.7341
20.049
19.362
18.6729
17.9815
17.2875
16.5906
15.8909
15.1888
14.4847
13.7792
13.0729
12.366
11.659
10.9519
10.2448
9.53784
8.83099
8.12424
7.41759
6.711
6.00448
5.298
4.59155
3.88513
3.17872
2.47233
1.76594
1.05956
0.35318
26.4947
26.1416
25.7058
25.1995
24.6383
24.0362
23.4048
22.753
22.0872
21.4124
20.7319
20.0476
19.3607
18.6714
17.9798
17.2856
16.5888
15.8893
15.1875
14.4838
13.7787
13.0726
12.3659
11.659
10.952
10.2449
9.53797
8.8311
8.12434
7.41766
6.71106
6.00452
5.29802
4.59157
3.88514
3.17873
2.47233
1.76594
1.05956
0.353179
26.333
26.0338
25.6345
25.1527
24.6078
24.0167
23.3926
22.7455
22.0829
21.4101
20.7307
20.0469
19.3601
18.6707
17.9789
17.2846
16.5877
15.8883
15.1867
14.4832
13.7783
13.0724
12.3659
11.659
10.952
10.245
9.53805
8.83117
8.12439
7.4177
6.71109
6.00454
5.29804
4.59157
3.88514
3.17873
2.47233
1.76594
1.05956
0.353178
26.2128
25.9628
25.5932
25.1292
24.5947
24.0097
23.3891
22.744
22.0825
21.4103
20.7311
20.0473
19.3604
18.6709
17.979
17.2846
16.5876
15.8882
15.1867
14.4832
13.7783
13.0725
12.366
11.6591
10.9521
10.2451
9.53809
8.8312
8.12441
7.41771
6.71109
6.00453
5.29803
4.59157
3.88513
3.17872
2.47232
1.76593
1.05955
0.353178
26.1618
25.9516
25.599
25.1405
24.6066
24.0201
23.3975
22.7505
22.0874
21.4138
20.7337
20.0493
19.362
18.6723
17.9803
17.2857
16.5887
15.8892
15.1875
14.4839
13.7788
13.0728
12.3662
11.6592
10.9522
10.2451
9.53807
8.83117
8.12437
7.41767
6.71106
6.00451
5.29801
4.59155
3.88512
3.17871
2.47231
1.76593
1.05955
0.353176
26.2808
26.031
25.6514
25.1748
24.6288
24.0341
23.406
22.7552
22.0894
21.4141
20.7329
20.048
19.3604
18.6707
17.9788
17.2844
16.5875
15.888
15.1863
14.4827
13.7777
13.0718
12.3652
11.6584
10.9514
10.2445
9.53758
8.83078
8.12407
7.41745
6.7109
6.0044
5.29794
4.59151
3.8851
3.1787
2.47232
1.76594
1.05956
0.353185
26.3319
26.0327
25.6333
25.1515
24.6066
24.0154
23.3912
22.744
22.0812
21.4082
20.7286
20.0447
19.3578
18.6683
17.9765
17.2823
16.5855
15.8862
15.1848
14.4815
13.7768
13.0711
12.3648
11.6581
10.9513
10.2444
9.53757
8.8308
8.12411
7.41749
6.71093
6.00443
5.29796
4.59153
3.88511
3.17871
2.47232
1.76594
1.05956
0.353186
26.4528
26.099
25.667
25.1669
24.6124
24.0163
23.3899
22.7418
22.0789
21.4061
20.7267
20.0431
19.3565
18.6673
17.9757
17.2816
16.5849
15.8857
15.1843
14.4811
13.7765
13.0708
12.3646
11.658
10.9512
10.2443
9.53753
8.83078
8.1241
7.41748
6.71093
6.00443
5.29797
4.59153
3.88512
3.17872
2.47233
1.76594
1.05956
0.353186
26.6182
26.2055
25.7343
25.2089
24.6381
24.0317
23.3987
22.7466
22.0812
21.4069
20.7268
20.043
19.3564
18.6675
17.9761
17.2821
16.5855
15.8863
15.1847
14.4814
13.7766
13.0708
12.3645
11.6579
10.9511
10.2442
9.53745
8.83072
8.12405
7.41745
6.71091
6.00442
5.29796
4.59152
3.88511
3.17871
2.47233
1.76594
1.05956
0.353187
26.8017
26.3316
25.82
25.2663
24.676
24.0563
23.4143
22.7561
22.0866
21.4097
20.7282
20.0438
19.3573
18.6687
17.9776
17.2838
16.5871
15.8877
15.1859
14.4821
13.777
13.0711
12.3646
11.6578
10.951
10.2441
9.53735
8.83063
8.12398
7.4174
6.71087
6.00439
5.29794
4.59151
3.8851
3.17871
2.47232
1.76594
1.05956
0.353188
26.9817
26.4602
25.9107
25.3294
24.7192
24.0852
23.4331
22.7679
22.0936
21.4137
20.7304
20.0453
19.3588
18.6705
17.9798
17.2862
16.5895
15.8898
15.1875
14.4832
13.7777
13.0714
12.3647
11.6578
10.9509
10.244
9.53723
8.83052
8.12389
7.41733
6.71082
6.00435
5.29791
4.59149
3.88509
3.1787
2.47232
1.76594
1.05956
0.353189
27.1421
26.5779
25.9958
25.39
24.7614
24.1141
23.4523
22.7801
22.101
21.4178
20.7327
20.0469
19.3606
18.6728
17.9825
17.2891
16.5922
15.8921
15.1892
14.4844
13.7784
13.0717
12.3648
11.6578
10.9508
10.2439
9.53711
8.83042
8.12381
7.41726
6.71077
6.00431
5.29788
4.59148
3.88508
3.17869
2.47231
1.76594
1.05956
0.35319
27.2714
26.6745
26.0669
25.4412
24.7977
24.1391
23.469
22.7908
22.1074
21.4214
20.7347
20.0484
19.3623
18.675
17.9851
17.2919
16.5949
15.8943
15.1909
14.4855
13.7791
13.0721
12.3649
11.6577
10.9507
10.2438
9.537
8.83032
8.12373
7.4172
6.71073
6.00428
5.29786
4.59146
3.88507
3.17869
2.47231
1.76593
1.05956
0.35319
27.3617
26.7428
26.1176
25.4782
24.8241
24.1574
23.4814
22.7988
22.1123
21.4242
20.7363
20.0496
19.3637
18.6768
17.9872
17.2941
16.597
15.8961
15.1922
14.4864
13.7796
13.0723
12.365
11.6577
10.9506
10.2437
9.53693
8.83026
8.12368
7.41717
6.7107
6.00426
5.29785
4.59145
3.88506
3.17868
2.47231
1.76593
1.05956
0.353191
27.4081
26.7781
26.1441
25.4976
24.838
24.1672
23.488
22.8031
22.115
21.4258
20.7372
20.0504
19.3646
18.6779
17.9885
17.2954
16.5982
15.8971
15.193
14.4869
13.7799
13.0725
12.3651
11.6578
10.9507
10.2437
9.53692
8.83025
8.12367
7.41716
6.71069
6.00426
5.29785
4.59145
3.88506
3.17868
2.4723
1.76593
1.05956
0.353191
27.4082
26.7782
26.1442
25.4978
24.8381
24.1673
23.4881
22.8033
22.1151
21.426
20.7375
20.0506
19.3648
18.6781
17.9887
17.2957
16.5985
15.8974
15.1932
14.4871
13.78
13.0726
12.3652
11.6579
10.9507
10.2438
9.53697
8.83029
8.1237
7.41718
6.71071
6.00427
5.29786
4.59146
3.88507
3.17869
2.47231
1.76593
1.05956
0.35319
27.3621
26.7431
26.118
25.4786
24.8245
24.1579
23.4818
22.7993
22.1128
21.4248
20.737
20.0503
19.3645
18.6775
17.988
17.2948
16.5977
15.8967
15.1928
14.4869
13.78
13.0727
12.3653
11.658
10.9509
10.2439
9.53708
8.83038
8.12377
7.41724
6.71075
6.0043
5.29788
4.59147
3.88508
3.17869
2.47231
1.76593
1.05956
0.353189
27.272
26.6751
26.0675
25.4418
24.7983
24.1397
23.4697
22.7916
22.1083
21.4224
20.7358
20.0495
19.3635
18.6762
17.9863
17.293
16.596
15.8953
15.1918
14.4863
13.7798
13.0727
12.3654
11.6582
10.9511
10.2441
9.53724
8.83051
8.12388
7.41732
6.71081
6.00435
5.29791
4.59149
3.88509
3.1787
2.47232
1.76594
1.05956
0.353187
27.143
26.5787
25.9966
25.3907
24.7622
24.1149
23.4532
22.7811
22.1021
21.4191
20.7341
20.0484
19.3621
18.6744
17.9841
17.2906
16.5937
15.8934
15.1905
14.4855
13.7794
13.0726
12.3655
11.6584
10.9513
10.2443
9.53743
8.83067
8.124
7.41742
6.71088
6.0044
5.29795
4.59152
3.88511
3.17871
2.47232
1.76594
1.05956
0.353185
26.9827
26.4611
25.9116
25.3304
24.7202
24.0863
23.4343
22.7691
22.095
21.4152
20.732
20.0471
19.3607
18.6724
17.9817
17.2881
16.5913
15.8914
15.1889
14.4845
13.7789
13.0724
12.3655
11.6585
10.9515
10.2445
9.53761
8.83083
8.12413
7.41751
6.71096
6.00445
5.29798
4.59154
3.88512
3.17872
2.47233
1.76594
1.05956
0.353183
26.8028
26.3326
25.821
25.2674
24.6771
24.0575
23.4156
22.7575
22.0881
21.4114
20.7301
20.0458
19.3594
18.6708
17.9797
17.2859
16.5891
15.8896
15.1876
14.4836
13.7784
13.0722
12.3655
11.6586
10.9516
10.2447
9.53778
8.83097
8.12425
7.4176
6.71102
6.0045
5.29801
4.59156
3.88514
3.17873
2.47233
1.76594
1.05956
0.353181
26.6194
26.2066
25.7354
25.21
24.6392
24.0329
23.4001
22.7481
22.0828
21.4087
20.7288
20.0451
19.3586
18.6698
17.9784
17.2844
16.5876
15.8883
15.1866
14.483
13.778
13.0721
12.3656
11.6587
10.9518
10.2448
9.53791
8.83108
8.12433
7.41766
6.71107
6.00453
5.29803
4.59158
3.88514
3.17873
2.47233
1.76594
1.05956
0.35318
26.4539
26.1001
25.6681
25.1681
24.6136
24.0176
23.3913
22.7434
22.0806
21.4079
20.7288
20.0453
19.3588
18.6697
17.9781
17.2839
16.5871
15.8878
15.1862
14.4828
13.778
13.0721
12.3657
11.6589
10.9519
10.2449
9.538
8.83114
8.12438
7.41769
6.71109
6.00454
5.29804
4.59158
3.88514
3.17873
2.47233
1.76594
1.05956
0.353178
26.333
26.0338
25.6344
25.1527
24.6078
24.0167
23.3925
22.7455
22.0829
21.4101
20.7306
20.0469
19.3601
18.6707
17.979
17.2846
16.5878
15.8884
15.1867
14.4832
13.7783
13.0724
12.3659
11.659
10.952
10.245
9.53803
8.83115
8.12437
7.41768
6.71107
6.00452
5.29802
4.59156
3.88513
3.17872
2.47232
1.76593
1.05955
0.353177
26.2819
26.0321
25.6525
25.1759
24.6299
24.0353
23.4073
22.7566
22.091
21.4159
20.7349
20.0501
19.3627
18.6731
17.9812
17.2868
16.5897
15.8901
15.1882
14.4844
13.7792
13.073
12.3663
11.6592
10.9521
10.245
9.538
8.8311
8.12431
7.41762
6.71102
6.00448
5.29799
4.59153
3.88511
3.1787
2.4723
1.76592
1.05954
0.353173
26.4365
26.1422
25.7292
25.2285
24.6654
24.0587
23.4222
22.7656
22.0959
21.418
20.7352
20.0496
19.3619
18.6723
17.9806
17.2863
16.5894
15.8897
15.1877
14.4838
13.7784
13.0722
12.3654
11.6584
10.9514
10.2444
9.53749
8.83069
8.124
7.41739
6.71085
6.00437
5.29792
4.59149
3.88509
3.1787
2.47231
1.76594
1.05956
0.353184
26.4936
26.1405
25.7047
25.1984
24.6371
24.035
23.4035
22.7515
22.0856
21.4106
20.7299
20.0454
19.3584
18.6691
17.9775
17.2834
16.5866
15.8872
15.1856
14.4821
13.7772
13.0713
12.3649
11.6581
10.9512
10.2443
9.5375
8.83073
8.12405
7.41744
6.7109
6.0044
5.29795
4.59152
3.88511
3.17871
2.47232
1.76594
1.05956
0.353187
26.6182
26.2055
25.7343
25.2089
24.6381
24.0317
23.3987
22.7466
22.0812
21.4069
20.7268
20.043
19.3564
18.6675
17.9761
17.2821
16.5855
15.8863
15.1847
14.4814
13.7766
13.0708
12.3645
11.6579
10.9511
10.2442
9.53745
8.83072
8.12405
7.41745
6.71091
6.00442
5.29796
4.59153
3.88511