# vtk DataFile Version 2.0
I need something to put here
ASCII

DATASET STRUCTURED_GRID
DIMENSIONS 41 21 21
POINTS 18081 float
0.000000 0.000000 0.000000
0.100000 0.000000 0.000000
0.200000 0.000000 0.000000
0.300000 0.000000 0.000000
0.400000 0.000000 0.000000
0.500000 0.000000 0.000000
0.600000 0.000000 0.000000
0.700000 0.000000 0.000000
0.800000 0.000000 0.000000
0.900000 0.000000 0.000000
1.000000 0.000000 0.000000
1.100000 0.000000 0.000000
1.200000 0.000000 0.000000
1.300000 0.000000 0.000000
1.400000 0.000000 0.000000
1.500000 0.000000 0.000000
1.600000 0.000000 0.000000
1.700000 0.000000 0.000000
1.800000 0.000000 0.000000
1.900000 0.000000 0.000000
2.000000 0.000000 0.000000
2.100000 0.000000 0.000000
2.200000 0.000000 0.000000
2.300000 0.000000 0.000000
2.400000 0.000000 0.000000
2.500000 0.000000 0.000000
2.600000 0.000000 0.000000
2.700000 0.000000 0.000000
2.800000 0.000000 0.000000
2.900000 0.000000 0.000000
3.000000 0.000000 0.000000
3.100000 0.000000 0.000000
3.200000 0.000000 0.000000
3.300000 0.000000 0.000000
3.400000 0.000000 0.000000
3.500000 0.000000 0.000000
3.600000 0.000000 0.000000
3.700000 0.000000 0.000000
3.800000 0.000000 0.000000
3.900000 0.000000 0.000000
4.000000 0.000000 0.000000
0.000000 0.100000 0.000000
0.100000 0.100000 0.000000
0.200000 0.100000 0.000000
0.300000 0.100000 0.000000
0.400000 0.100000 0.000000
0.500000 0.100000 0.000000
0.600000 0.100000 0.000000
0.700000 0.100000 0.000000
0.800000 0.100000 0.000000
0.900000 0.100000 0.000000
1.000000 0.100000 0.000000
1.100000 0.100000 0.000000
1.200000 0.100000 0.000000
1.300000 0.100000 0.000000
1.400000 0.100000 0.000000
1.500000 0.100000 0.000000
1.600000 0.100000 0.000000
1.700000 0.100000 0.000000
1.800000 0.100000 0.000000
1.900000 0.100000 0.000000
2.000000 0.100000 0.000000
2.100000 0.100000 0.000000
2.200000 0.100000 0.000000
2.300000 0.100000 0.000000
2.400000 0.100000 0.000000
2.500000 0.100000 0.000000
2.600000 0.100000 0.000000
2.700000 0.100000 0.000000
2.800000 0.100000 0.000000
2.900000 0.100000 0.000000
3.000000 0.100000 0.000000
3.100000 0.100000 0.000000
3.200000 0.100000 0.000000
3.300000 0.100000 0.000000
3.400000 0.100000 0.000000
3.500000 0.100000 0.000000
3.600000 0.100000 0.000000
3.700000 0.100000 0.000000
3.800000 0.100000 0.000000
3.900000 0.100000 0.000000
4.000000 0.100000 0.000000
0.000000 0.200000 0.000000
0.100000 0.200000 0.000000
0.200000 0.200000 0.000000
0.300000 0.200000 0.000000
0.400000 0.200000 0.000000
0.500000 0.200000 0.000000
0.600000 0.200000 0.000000
0.700000 0.200000 0.000000
0.800000 0.200000 0.000000
0.900000 0.200000 0.000000
1.000000 0.200000 0.000000
1.100000 0.200000 0.000000
1.200000 0.200000 0.000000
1.300000 0.200000 0.000000
1.400000 0.200000 0.000000
1.500000 0.200000 0.000000
1.600000 0.200000 0.000000
1.700000 0.200000 0.000000
1.800000 0.200000 0.000000
1.900000 0.200000 0.000000
2.000000 0.200000 0.000000
2.100000 0.200000 0.000000
2.200000 0.200000 0.000000
2.300000 0.200000 0.000000
2.400000 0.200000 0.000000
2.500000 0.200000 0.000000
2.600000 0.200000 0.000000
2.700000 0.200000 0.000000
2.800000 0.200000 0.000000
2.900000 0.200000 0.000000
3.000000 0.200000 0.000000
3.100000 0.200000 0.000000
3.200000 0.200000 0.000000
3.300000 0.200000 0.000000
3.400000 0.200000 0.000000
3.500000 0.200000 0.000000
3.600000 0.200000 0.000000
3.700000 0.200000 0.000000
3.800000 0.200000 0.000000
3.900000 0.200000 0.000000
4.000000 0.200000 0.000000
0.000000 0.300000 0.000000
0.100000 0.300000 0.000000
0.200000 0.300000 0.000000
0.300000 0.300000 0.000000
0.400000 0.300000 0.000000
0.500000 0.300000 0.000000
0.600000 0.300000 0.000000
0.700000 0.300000 0.000000
0.800000 0.300000 0.000000
0.900000 0.300000 0.000000
1.000000 0.300000 0.000000
1.100000 0.300000 0.000000
1.200000 0.300000 0.000000
1.300000 0.300000 0.000000
1.400000 0.300000 0.000000
1.500000 0.300000 0.000000
1.600000 0.300000 0.000000
1.700000 0.300000 0.000000
1.800000 0.300000 0.000000
1.900000 0.300000 0.000000
2.000000 0.300000 0.000000
2.100000 0.300000 0.000000
2.200000 0.300000 0.000000
2.300000 0.300000 0.000000
2.400000 0.300000 0.000000
2.500000 0.300000 0.000000
2.600000 0.300000 0.000000
2.700000 0.300000 0.000000
2.800000 0.300000 0.000000
2.900000 0.300000 0.000000
3.000000 0.300000 0.000000
3.100000 0.300000 0.000000
3.200000 0.300000 0.000000
3.300000 0.300000 0.000000
3.400000 0.300000 0.000000
3.500000 0.300000 0.000000
3.600000 0.300000 0.000000
3.700000 0.300000 0.000000
3.800000 0.300000 0.000000
3.900000 0.300000 0.000000
4.000000 0.300000 0.000000
0.000000 0.400000 0.000000
0.100000 0.400000 0.000000
0.200000 0.400000 0.000000
0.300000 0.400000 0.000000
0.400000 0.400000 0.000000
0.500000 0.400000 0.000000
0.600000 0.400000 0.000000
0.700000 0.400000 0.000000
0.800000 0.400000 0.000000
0.900000 0.400000 0.000000
1.000000 0.400000 0.000000
1.100000 0.400000 0.000000
1.200000 0.400000 0.000000
1.300000 0.400000 0.000000
1.400000 0.400000 0.000000
1.500000 0.400000 0.000000
1.600000 0.400000 0.000000
1.700000 0.400000 0.000000
1.800000 0.400000 0.000000
1.900000 0.400000 0.000000
2.000000 0.400000 0.000000
2.100000 0.400000 0.000000
2.200000 0.400000 0.000000
2.300000 0.400000 0.000000
2.400000 0.400000 0.000000
2.500000 0.400000 0.000000
2.600000 0.400000 0.000000
2.700000 0.400000 0.000000
2.800000 0.400000 0.000000
2.900000 0.400000 0.000000
3.000000 0.400000 0.000000
3.100000 0.400000 0.000000
3.200000 0.400000 0.000000
3.300000 0.400000 0.000000
3.400000 0.400000 0.000000
3.500000 0.400000 0.000000
3.600000 0.400000 0.000000
3.700000 0.400000 0.000000
3.800000 0.400000 0.000000
3.900000 0.400000 0.000000
4.000000 0.400000 0.000000
0.000000 0.500000 0.000000
0.100000 0.500000 0.000000
0.200000 0.500000 0.000000
0.300000 0.500000 0.000000
0.400000 0.500000 0.000000
0.500000 0.500000 0.000000
0.600000 0.500000 0.000000
0.700000 0.500000 0.000000
0.800000 0.500000 0.000000
0.900000 0.500000 0.000000
1.000000 0.500000 0.000000
1.100000 0.500000 0.000000
1.200000 0.500000 0.000000
1.300000 0.500000 0.000000
1.400000 0.500000 0.000000
1.500000 0.500000 0.000000
1.600000 0.500000 0.000000
1.700000 0.500000 0.000000
1.800000 0.500000 0.000000
1.900000 0.500000 0.000000
2.000000 0.500000 0.000000
2.100000 0.500000 0.000000
2.200000 0.500000 0.000000
2.300000 0.500000 0.000000
2.400000 0.500000 0.000000
2.500000 0.500000 0.000000
2.600000 0.500000 0.000000
2.700000 0.500000 0.000000
2.800000 0.500000 0.000000
2.900000 0.500000 0.000000
3.000000 0.500000 0.000000
3.100000 0.500000 0.000000
3.200000 0.500000 0.000000
3.300000 0.500000 0.000000
3.400000 0.500000 0.000000
3.500000 0.500000 0.000000
3.600000 0.500000 0.000000
3.700000 0.500000 0.000000
3.800000 0.500000 0.000000
3.900000 0.500000 0.000000
4.000000 0.500000 0.000000
0.000000 0.600000 0.000000
0.100000 0.600000 0.000000
0.200000 0.600000 0.000000
0.300000 0.600000 0.000000
0.400000 0.600000 0.000000
0.500000 0.600000 0.000000
0.600000 0.600000 0.000000
0.700000 0.600000 0.000000
0.800000 0.600000 0.000000
0.900000 0.600000 0.000000
1.000000 0.600000 0.000000
1.100000 0.600000 0.000000
1.200000 0.600000 0.000000
1.300000 0.600000 0.000000
1.400000 0.600000 0.000000
1.500000 0.600000 0.000000
1.600000 0.600000 0.000000
1.700000 0.600000 0.000000
1.800000 0.600000 0.000000
1.900000 0.600000 0.000000
2.000000 0.600000 0.000000
2.100000 0.600000 0.000000
2.200000 0.600000 0.000000
2.300000 0.600000 0.000000
2.400000 0.600000 0.000000
2.500000 0.600000 0.000000
2.600000 0.600000 0.000000
2.700000 0.600000 0.000000
2.800000 0.600000 0.000000
2.900000 0.600000 0.000000
3.000000 0.600000 0.000000
3.100000 0.600000 0.000000
3.200000 0.600000 0.000000
3.300000 0.600000 0.000000
3.400000 0.600000 0.000000
3.500000 0.600000 0.000000
3.600000 0.600000 0.000000
3.700000 0.600000 0.000000
3.800000 0.600000 0.000000
3.900000 0.600000 0.000000
4.000000 0.600000 0.000000
0.000000 0.700000 0.000000
0.100000 0.700000 0.000000
0.200000 0.700000 0.000000
0.300000 0.700000 0.000000
0.400000 0.700000 0.000000
0.500000 0.700000 0.000000
0.600000 0.700000 0.000000
0.700000 0.700000 0.000000
0.800000 0.700000 0.000000
0.900000 0.700000 0.000000
1.000000 0.700000 0.000000
1.100000 0.700000 0.000000
1.200000 0.700000 0.000000
1.300000 0.700000 0.000000
1.400000 0.700000 0.000000
1.500000 0.700000 0.000000
1.600000 0.700000 0.000000
1.700000 0.700000 0.000000
1.800000 0.700000 0.000000
1.900000 0.700000 0.000000
2.000000 0.700000 0.000000
2.100000 0.700000 0.000000
2.200000 0.700000 0.000000
2.300000 0.700000 0.000000
2.400000 0.700000 0.000000
2.500000 0.700000 0.000000
2.600000 0.700000 0.000000
2.700000 0.700000 0.000000
2.800000 0.700000 0.000000
2.900000 0.700000 0.000000
3.000000 0.700000 0.000000
3.100000 0.700000 0.000000
3.200000 0.700000 0.000000
3.300000 0.700000 0.000000
3.400000 0.700000 0.000000
3.500000 0.700000 0.000000
3.600000 0.700000 0.000000
3.700000 0.700000 0.000000
3.800000 0.700000 0.000000
3.900000 0.700000 0.000000
4.000000 0.700000 0.000000
0.000000 0.800000 0.000000
0.100000 0.800000 0.000000
0.200000 0.800000 0.000000
0.300000 0.800000 0.000000
0.400000 0.800000 0.000000
0.500000 0.800000 0.000000
0.600000 0.800000 0.000000
0.700000 0.800000 0.000000
0.800000 0.800000 0.000000
0.900000 0.800000 0.000000
1.000000 0.800000 0.000000
1.100000 0.800000 0.000000
1.200000 0.800000 0.000000
1.300000 0.800000 0.000000
1.400000 0.800000 0.000000
1.500000 0.800000 0.000000
1.600000 0.800000 0.000000
1.700000 0.800000 0.000000
1.800000 0.800000 0.000000
1.900000 0.800000 0.000000
2.000000 0.800000 0.000000
2.100000 0.800000 0.000000
2.200000 0.800000 0.000000
2.300000 0.800000 0.000000
2.400000 0.800000 0.000000
2.500000 0.800000 0.000000
2.600000 0.800000 0.000000
2.700000 0.800000 0.000000
2.800000 0.800000 0.000000
2.900000 0.800000 0.000000
3.000000 0.800000 0.000000
3.100000 0.800000 0.000000
3.200000 0.800000 0.000000
3.300000 0.800000 0.000000
3.400000 0.800000 0.000000
3.500000 0.800000 0.000000
3.600000 0.800000 0.000000
[...]
CELL_DATA 16000
SCALARS pressure float 1
LOOKUP_TABLE default
26.2329
26.0502
25.7121
25.261
24.7301
24.1436
23.5188
22.8674
22.1978
21.5158
20.8253
20.1289
19.4286
18.7256
18.0207
17.3146
16.6078
15.9005
15.193
14.4855
13.778
13.0707
12.3636
11.6567
10.9498
10.2431
9.53652
8.82998
8.12349
7.41705
6.71062
6.00422
5.29783
4.59144
3.88507
3.17869
2.47231
1.76594
1.05956
0.353188
26.2914
26.0815
25.7288
25.2698
24.7347
24.1459
23.5198
22.8678
22.1979
21.5157
20.8251
20.1287
19.4285
18.7255
18.0206
17.3145
16.6077
15.9004
15.1929
14.4854
13.778
13.0707
12.3636
11.6567
10.9498
10.2431
9.53652
8.82998
8.12349
7.41705
6.71062
6.00422
5.29783
4.59145
3.88507
3.17869
2.47231
1.76594
1.05956
0.353188
26.4115
26.1621
25.7826
25.3056
24.7584
24.1617
23.5302
22.8747
22.2024
21.5187
20.827
20.13
19.4293
18.726
18.021
17.3147
16.6078
15.9004
15.1929
14.4853
13.7779
13.0706
12.3635
11.6566
10.9498
10.2431
9.53649
8.82996
8.12348
7.41704
6.71062
6.00422
5.29783
4.59144
3.88507
3.17869
2.47231
1.76594
1.05956
0.353188
26.5675
26.2736
25.8608
25.3598
24.7958
24.1872
23.5476
22.8865
22.2104
21.524
20.8306
20.1325
19.431
18.7271
18.0217
17.3152
16.608
15.9005
15.1928
14.4852
13.7778
13.0705
12.3634
11.6565
10.9497
10.243
9.53644
8.82992
8.12345
7.41702
6.71061
6.00421
5.29782
4.59144
3.88506
3.17869
2.47231
1.76594
1.05956
0.353188
26.7371
26.3998
25.9521
25.4247
24.8414
24.219
23.5696
22.9015
22.2206
21.531
20.8354
20.1357
19.4332
18.7287
18.0227
17.3158
16.6083
15.9005
15.1927
14.485
13.7776
13.0703
12.3632
11.6563
10.9496
10.2429
9.53636
8.82987
8.12341
7.41699
6.71059
6.0042
5.29781
4.59144
3.88506
3.17869
2.47231
1.76594
1.05956
0.353187
26.9026
26.5263
26.0457
25.4925
24.8897
24.2531
23.5934
22.918
22.232
21.5388
20.8407
20.1394
19.4358
18.7305
18.0239
17.3165
16.6087
15.9006
15.1926
14.4848
13.7773
13.07
12.363
11.6561
10.9494
10.2428
9.53628
8.82981
8.12337
7.41696
6.71057
6.00419
5.29781
4.59143
3.88506
3.17869
2.47231
1.76594
1.05956
0.353187
27.0499
26.6414
26.1323
25.5562
24.9357
24.2858
23.6164
22.934
22.243
21.5464
20.846
20.1431
19.4384
18.7323
18.0251
17.3173
16.609
15.9007
15.1925
14.4846
13.777
13.0698
12.3628
11.6559
10.9493
10.2427
9.53619
8.82975
8.12333
7.41693
6.71055
6.00417
5.2978
4.59143
3.88506
3.17868
2.47231
1.76594
1.05956
0.353187
27.1689
26.7356
26.2042
25.6095
24.9745
24.3137
23.6361
22.9478
22.2526
21.5531
20.8507
20.1464
19.4407
18.7339
18.0263
17.318
16.6094
15.9008
15.1924
14.4844
13.7768
13.0696
12.3626
11.6558
10.9491
10.2426
9.53612
8.82969
8.12329
7.41691
6.71053
6.00416
5.29779
4.59142
3.88505
3.17868
2.47231
1.76594
1.05956
0.353186
27.2521
26.8021
26.2553
25.6478
25.0026
24.3339
23.6505
22.958
22.2597
21.558
20.8541
20.1488
19.4425
18.7352
18.0272
17.3185
16.6096
15.9008
15.1923
14.4843
13.7766
13.0694
12.3624
11.6557
10.949
10.2425
9.53607
8.82966
8.12327
7.41689
6.71052
6.00416
5.29779
4.59142
3.88505
3.17868
2.47231
1.76594
1.05956
0.353185
27.2948
26.8365
26.2819
25.6678
25.0173
24.3446
23.6581
22.9633
22.2635
21.5606
20.856
20.1502
19.4435
18.736
18.0277
17.3189
16.6098
15.9009
15.1923
14.4842
13.7766
13.0693
12.3624
11.6556
10.949
10.2425
9.53606
8.82965
8.12326
7.41689
6.71052
6.00416
5.29779
4.59142
3.88505
3.17868
2.47231
1.76594
1.05956
0.353185
27.2948
26.8365
26.2819
25.6678
25.0173
24.3446
23.6582
22.9634
22.2635
21.5607
20.856
20.1503
19.4436
18.736
18.0278
17.319
16.6099
15.901
15.1924
14.4843
13.7767
13.0694
12.3624
11.6557
10.949
10.2425
9.53608
8.82967
8.12328
7.4169
6.71053
6.00416
5.29779
4.59143
3.88506
3.17868
2.47231
1.76594
1.05956
0.353184
27.2521
26.8022
26.2554
25.6479
25.0027
24.334
23.6506
22.9581
22.2598
21.5581
20.8543
20.1491
19.4428
18.7355
18.0275
17.3188
16.6099
15.9011
15.1926
14.4845
13.7769
13.0696
12.3626
11.6558
10.9491
10.2426
9.53614
8.82971
8.12331
7.41693
6.71055
6.00417
5.2978
4.59143
3.88506
3.17869
2.47231
1.76594
1.05956
0.353183
27.169
26.7357
26.2043
25.6096
24.9747
24.3138
23.6363
22.948
22.2529
21.5533
20.851
20.1468
19.4411
18.7344
18.0268
17.3185
16.6099
15.9012
15.1928
14.4848
13.7771
13.0698
12.3628
11.656
10.9493
10.2427
9.53623
8.82978
8.12336
7.41696
6.71057
6.00419
5.29781
4.59144
3.88506
3.17869
2.47231
1.76594
1.05956
0.353182
27.0501
26.6416
26.1325
25.5563
24.9359
24.286
23.6166
22.9343
22.2433
21.5468
20.8464
20.1436
19.4389
18.7329
18.0258
17.3179
16.6097
15.9013
15.1931
14.4851
13.7775
13.0702
12.3631
11.6562
10.9495
10.2429
9.53634
8.82986
8.12342
7.417
6.7106
6.00421
5.29783
4.59145
3.88507
3.17869
2.47231
1.76594
1.05956
0.353182
26.9027
26.5265
26.0459
25.4927
24.89
24.2533
23.5937
22.9183
22.2323
21.5392
20.8412
20.14
19.4364
18.7312
18.0247
17.3173
16.6094
15.9014
15.1933
14.4855
13.7778
13.0705
12.3634
11.6565
10.9497
10.243
9.53645
8.82994
8.12348
7.41704
6.71063
6.00423
5.29784
4.59145
3.88507
3.17869
2.47231
1.76594
1.05956
0.353181
26.7374
26.4
25.9523
25.4249
24.8416
24.2192
23.5699
22.9018
22.221
21.5315
20.836
20.1364
19.4339
18.7295
18.0236
17.3167
16.6092
15.9014
15.1935
14.4857
13.7782
13.0708
12.3636
11.6567
10.9499
10.2432
9.53655
8.83002
8.12353
7.41708
6.71065
6.00424
5.29785
4.59146
3.88507
3.17869
2.47231
1.76594
1.05956
0.353181
26.5677
26.2738
25.8611
25.3601
24.796
24.1875
23.548
22.8868
22.2108
21.5245
20.8312
20.1332
19.4317
18.728
18.0226
17.3161
16.6089
15.9013
15.1936
14.4859
13.7784
13.071
12.3639
11.6569
10.95
10.2433
9.53664
8.83008
8.12357
7.41711
6.71067
6.00426
5.29785
4.59146
3.88508
3.17869
2.47231
1.76594
1.05956
0.353181
26.4118
26.1623
25.7828
25.3058
24.7587
24.162
23.5306
22.875
22.2028
21.5192
20.8277
20.1307
19.4301
18.7269
18.0219
17.3157
16.6087
15.9013
15.1937
14.4861
13.7786
13.0712
12.364
11.657
10.9501
10.2433
9.53669
8.83012
8.1236
7.41713
6.71068
6.00426
5.29786
4.59146
3.88508
3.17869
2.47231
1.76593
1.05956
0.353182
26.2917
26.0817
25.7291
25.2701
24.7349
24.1462
23.5201
22.8681
22.1983
21.5162
20.8257
20.1294
19.4292
18.7263
18.0215
17.3154
16.6086
15.9013
15.1937
14.4861
13.7786
13.0713
12.3641
11.657
10.9502
10.2434
9.53672
8.83014
8.12361
7.41713
6.71069
6.00426
5.29786
4.59146
3.88507
3.17869
2.47231
1.76593
1.05956
0.353183
26.2331
26.0504
25.7124
25.2612
24.7303
24.1439
23.5191
22.8678
22.1983
21.5163
20.8259
20.1296
19.4294
18.7264
18.0216
17.3155
16.6086
15.9013
15.1938
14.4862
13.7787
13.0713
12.3641
11.657
10.9502
10.2434
9.53672
8.83013
8.12361
7.41713
6.71068
6.00426
5.29785
4.59146
3.88507
3.17869
2.47231
1.76593
1.05956
0.353184
26.2914
26.0815
25.7288
25.2698
24.7347
24.1459
23.5198
22.8678
22.1979
21.5157
20.8251
20.1287
19.4285
18.7255
18.0206
17.3145
16.6077
15.9004
15.1929
14.4854
13.778
13.0707
12.3636
11.6567
10.9498
10.2431
9.53652
8.82998
8.12349
7.41705
6.71062
6.00422
5.29783
4.59145
3.88507
3.17869
2.47231
1.76594
1.05956
0.353188
26.3421
26.0924
25.7228
25.2581
24.7223
24.1349
23.5107
22.8606
22.1923
21.5115
20.8219
20.1264
19.4267
18.7242
18.0197
17.3139
16.6073
15.9001
15.1928
14.4853
13.778
13.0707
12.3636
11.6567
10.9499
10.2432
9.53655
8.83
8.12351
7.41706
6.71063
6.00423
5.29783
4.59145
3.88507
3.17869
2.47232
1.76594
1.05956
0.353189
26.4623
26.1635
25.7641
25.2817
24.7355
24.142
23.5143
22.8622
22.1929
21.5115
20.8217
20.1261
19.4264
18.7239
18.0195
17.3137
16.6071
15.9
15.1926
14.4852
13.7779
13.0707
12.3636
11.6567
10.9498
10.2431
9.53654
8.83
8.12351
7.41706
6.71063
6.00423
5.29784
4.59145
3.88507
3.17869
2.47231
1.76594
1.05956
0.353189
26.6241
26.2715
25.8358
25.329
24.7665
24.1622
23.5274
22.8706
22.1982
21.5149
20.8238
20.1274
19.4272
18.7244
18.0198
17.3138
16.6071
15.8999
15.1925
14.4851
13.7778
13.0705
12.3635
11.6566
10.9498
10.2431
9.5365
8.82997
8.12349
7.41705
6.71063
6.00422
5.29783
4.59145
3.88507
3.17869
2.47232
1.76594
1.05957
0.353189
26.8021
26.3971
25.9237
25.3899
24.8083
24.1906
23.5465
22.8834
22.2067
21.5205
20.8275
20.1299
19.4289
18.7255
18.0204
17.3142
16.6073
15.8999
15.1924
14.4849
13.7776
13.0704
12.3633
11.6564
10.9497
10.243
9.53645
8.82993
8.12347
7.41703
6.71062
6.00422
5.29783
4.59145
3.88507
3.17869
2.47232
1.76594
1.05957
0.35319
26.976
26.5242
26.0156
25.4553
24.8543
24.2226
23.5686
22.8984
22.2169
21.5273
20.8321
20.133
19.431
18.7269
18.0214
17.3148
16.6075
15.9
15.1923
14.4848
13.7774
13.0702
12.3632
11.6563
10.9496
10.2429
9.53638
8.82988
8.12343
7.41701
6.7106
6.00421
5.29782
4.59144
3.88507
3.17869
2.47232
1.76594
1.05957
0.35319
27.1308
26.6403
26.1012
25.5175
24.8988
24.254
23.5905
22.9135
22.2272
21.5344
20.8369
20.1363
19.4333
18.7285
18.0224
17.3154
16.6078
15.9
15.1922
14.4846
13.7772
13.07
12.363
11.6561
10.9494
10.2428
9.53631
8.82983
8.1234
7.41698
6.71058
6.0042
5.29782
4.59144
3.88506
3.17869
2.47232
1.76594
1.05957
0.353191
27.2556
26.7355
26.1725
25.57
24.9367
24.2811
23.6095
22.9268
22.2364
21.5406
20.8412
20.1393
19.4354
18.7299
18.0234
17.316
16.6081
15.9001
15.1921
14.4844
13.777
13.0698
12.3628
11.656
10.9493
10.2428
9.53625
8.82979
8.12337
7.41696
6.71057
6.00419
5.29781
4.59144
3.88506
3.17869
2.47232
1.76594
1.05957
0.353191
27.3428
26.8027
26.2234
25.6077
24.9642
24.3008
23.6235
22.9365
22.2431
21.5453
20.8445
20.1415
19.437
18.7311
18.0241
17.3165
16.6084
15.9002
15.1921
14.4843
13.7768
13.0696
12.3627
11.6559
10.9493
10.2427
9.53621
8.82976
8.12335
7.41695
6.71056
6.00418
5.29781
4.59144
3.88506
3.17869
2.47232
1.76594
1.05957
0.353191
27.3875
26.8375
26.2499
25.6275
24.9787
24.3112
23.6309
22.9417
22.2468
21.5478
20.8462
20.1428
19.4379
18.7317
18.0246
17.3168
16.6085
15.9002
15.1921
14.4843
13.7768
13.0696
12.3626
11.6559
10.9492
10.2427
9.5362
8.82976
8.12334
7.41695
6.71056
6.00418
5.29781
4.59144
3.88506
3.17869
2.47232
1.76594
1.05957
0.353191
27.3875
26.8375
26.2499
25.6275
24.9787
24.3112
23.6309
22.9418
22.2468
21.5479
20.8463
20.1429
19.4379
18.7318
18.0247
17.3169
16.6086
15.9003
15.1922
14.4844
13.7769
13.0697
12.3627
11.6559
10.9493
10.2427
9.53622
8.82977
8.12336
7.41696
6.71057
6.00419
5.29781
4.59144
3.88506
3.17869
2.47232
1.76595
1.05957
0.35319
27.3428
26.8028
26.2235
25.6078
24.9643
24.3009
23.6235
22.9367
22.2433
21.5455
20.8447
20.1417
19.4372
18.7313
18.0244
17.3168
16.6086
15.9004
15.1923
14.4845
13.777
13.0698
12.3628
11.656
10.9493
10.2428
9.53627
8.82981
8.12339
7.41698
6.71059
6.0042
5.29782
4.59144
3.88507
3.17869
2.47232
1.76595
1.05957
0.35319
27.2557
26.7356
26.1727
25.5701
24.9368
24.2812
23.6096
22.927
22.2366
21.5409
20.8415
20.1396
19.4357
18.7304
18.0238
17.3164
16.6086
15.9005
15.1925
14.4848
13.7773
13.07
12.363
11.6562
10.9495
10.2429
9.53635
8.82987
8.12343
7.41701
6.71061
6.00422
5.29783
4.59145
3.88507
3.17869
2.47232
1.76595
1.05957
0.353189
27.131
26.6405
26.1014
25.5177
24.899
24.2542
23.5907
22.9138
22.2275
21.5347
20.8373
20.1367
19.4338
18.729
18.023
17.316
16.6084
15.9006
15.1928
14.4851
13.7776
13.0703
12.3633
11.6564
10.9496
10.243
9.53645
8.82994
8.12348
7.41705
6.71063
6.00423
5.29784
4.59146
3.88507
3.1787
2.47232
1.76595
1.05957
0.353188
26.9762
26.5244
26.0158
25.4555
24.8545
24.2229
23.5688
22.8987
22.2172
21.5277
20.8326
20.1335
19.4316
18.7276
18.0221
17.3155
16.6082
15.9006
15.193
14.4853
13.7779
13.0706
12.3635
11.6566
10.9498
10.2431
9.53654
8.83001
8.12353
7.41708
6.71066
6.00425
5.29785
4.59146
3.88508
3.1787
2.47232
1.76594
1.05957
0.353187
26.8023
26.3973
25.9239
25.3901
24.8085
24.1909
23.5468
22.8837
22.2071
21.5209
20.8281
20.1305
19.4296
18.7262
18.0212
17.315
16.6081
15.9007
15.1931
14.4856
13.7781
13.0709
12.3638
11.6568
10.95
10.2433
9.53663
8.83008
8.12358
7.41711
6.71068
6.00426
5.29786
4.59147
3.88508
3.1787
2.47232
1.76594
1.05957
0.353186
26.6244
26.2717
25.836
25.3292
24.7667
24.1625
23.5277
22.871
22.1986
21.5154
20.8244
20.1281
19.428
18.7252
18.0206
17.3147
16.608
15.9007
15.1933
14.4858
13.7784
13.0711
12.3639
11.6569
10.9501
10.2433
9.5367
8.83013
8.12361
7.41714
6.71069
6.00427
5.29786
4.59147
3.88508
3.1787
2.47232
1.76594
1.05957
0.353185
26.4625
26.1637
25.7643
25.2819
24.7358
24.1423
23.5147
22.8626
22.1933
21.512
20.8223
20.1268
19.4272
18.7247
18.0203
17.3146
16.608
15.9008
15.1934
14.4859
13.7785
13.0712
12.3641
11.657
10.9502
10.2434
9.53674
8.83016
8.12363
7.41715
6.7107
6.00427
5.29787
4.59147
3.88508
3.1787
2.47232
1.76594
1.05956
0.353184
26.3424
26.0926
25.723
25.2584
24.7226
24.1352
23.511
22.8609
22.1927
21.512
20.8225
20.1271
19.4275
18.725
18.0206
17.3148
16.6081
15.901
15.1935
14.4861
13.7786
13.0713
12.3641
11.6571
10.9502
10.2434
9.53674
8.83016
8.12363
7.41714
6.71069
6.00427
5.29786
4.59146
3.88508
3.17869
2.47231
1.76594
1.05956
0.353184
26.2917
26.0817
25.7291
25.27
24.7349
24.1462
23.5201
22.8681
22.1983
21.5162
20.8257
20.1294
19.4292
18.7263
18.0215
17.3154
16.6085
15.9012
15.1937
14.4861
13.7786
13.0713
12.3641
11.657
10.9501
10.2434
9.53671
8.83012
8.1236
7.41712
6.71068
6.00426
5.29785
4.59146
3.88507
3.17869
2.47231
1.76593
1.05956
0.353184
26.4115
26.1621
25.7826
25.3056
24.7584
24.1617
23.5302
22.8747
22.2024
21.5187
20.827
20.13
19.4293
18.726
18.021
17.3147
16.6078
15.9004
15.1929
14.4853
13.7779
13.0706
12.3635
11.6566
10.9498
10.2431
9.53649
8.82996
8.12348
7.41704
6.71062
6.00422
5.29783
4.59144
3.88507
3.17869
2.47231
1.76594
1.05956
0.353188
26.4623
26.1635
25.7641
25.2817
24.7355
24.142
23.5143
22.8622
22.1929
21.5115
20.8217
20.1261
19.4264
18.7239
18.0195
17.3137
16.6071
15.9
15.1926
14.4852
13.7779
13.0707
12.3636
11.6567
10.9498
10.2431
9.53654
8.83
8.12351
7.41706
6.71064
6.00423
5.29784
4.59145
3.88507
3.17869
2.47231
1.76594
1.05956
0.353189
26.5829
26.2297
25.7976
25.2969
24.741
24.1427
23.5127
22.8598
22.1904
21.5092
20.8197
20.1245
19.4252
18.7229
18.0187
17.3132
16.6067
15.8997
15.1924
14.4851
13.7778
13.0706
12.3636
11.6566
10.9499
10.2432
9.53655
8.83001
8.12352
7.41707
6.71064
6.00423
5.29784
4.59145
3.88507
3.17869
2.47231
1.76594
1.05956
0.353188
26.7484
26.3363
25.8651
25.3391
24.767
24.1584
23.5221
22.8652
22.1933
21.5107
20.8205
20.1248
19.4252
18.7229
18.0186
17.313
16.6065
15.8995
15.1922
14.4849
13.7777
13.0705
12.3635
11.6566
10.9498
10.2431
9.53653
8.83
8.12351
7.41706
6.71064
6.00423
5.29784
4.59145
3.88507
3.17869
2.47232
1.76594
1.05956
0.353189
26.9324
26.4628
25.9513
25.3971
24.8056
24.1838
23.5386
22.8758
22.2001
21.515
20.8231
20.1264
19.4262
18.7235
18.019
17.3132
16.6065
15.8994
15.1921
14.4847
13.7775
13.0703
12.3633
11.6565
10.9497
10.2431
9.53649
8.82997
8.12349
7.41705
6.71063
6.00423
5.29784
4.59145
3.88507
3.17869
2.47231
1.76594
1.05956
0.353189
27.1131
26.5921
26.0427
25.461
24.8497
24.2139
23.5589
22.8894
22.2091
21.5209
20.827
20.129
19.4279
18.7246
18.0197
17.3135
16.6066
15.8993
15.1919
14.4845
13.7772
13.0701
12.3632
11.6563
10.9496
10.243
9.53643
8.82993
8.12347
7.41703
6.71062
6.00422
5.29783
4.59145
3.88507
3.17869
2.47231
1.76594
1.05956
0.35319
27.2745
26.7106
26.1287
25.5225
24.893
24.2441
23.5797
22.9035
22.2185
21.5272
20.8312
20.1318
19.4299
18.726
18.0205
17.314
16.6068
15.8993
15.1917
14.4843
13.777
13.0699
12.363
11.6562
10.9495
10.2429
9.53637
8.82988
8.12344
7.41701
6.71061
6.00421
5.29783
4.59145
3.88507
3.17869
2.47231
1.76594
1.05956
0.35319
27.4046
26.808
26.2004
25.5746
24.9303
24.2703
23.5979
22.916
22.2271
21.533
20.8351
20.1345
19.4318
18.7273
18.0214
17.3145
16.607
15.8993
15.1916
14.4841
13.7768
13.0697
12.3628
11.6561
10.9494
10.2428
9.53631
8.82985
8.12341
7.417
6.7106
6.00421
5.29783
4.59144
3.88507
3.17869
2.47231
1.76594
1.05957
0.35319
27.4955
26.8768
26.2518
25.6122
24.9575
24.2896
23.6114
22.9254
22.2335
21.5373
20.8381
20.1366
19.4333
18.7283
18.0221
17.3149
16.6072
15.8993
15.1915
14.484
13.7767
13.0696
12.3627
11.656
10.9493
10.2428
9.53628
8.82982
8.1234
7.41699
6.71059
6.00421
5.29782
4.59144
3.88507
3.17869
2.47231
1.76594
1.05957
0.353191
27.5422
26.9124
26.2785
25.6319
24.9717
24.2998
23.6186
22.9304
22.2369
21.5397
20.8398
20.1378
19.4341
18.7289
18.0225
17.3152
16.6073
15.8993
15.1915
14.4839
13.7766
13.0695
12.3627
11.6559
10.9493
10.2428
9.53627
8.82982
8.12339
7.41699
6.71059
6.00421
5.29782
4.59145
3.88507
3.17869
2.47231
1.76594
1.05957
0.35319
27.5422
26.9124
26.2785
25.6319
24.9718
24.2999
23.6187
22.9304
22.237
21.5397
20.8398
20.1378
19.4342
18.729
18.0226
17.3153
16.6074
15.8994
15.1916
14.484
13.7767
13.0696
12.3627
11.656
10.9493
10.2428
9.53629
8.82984
8.12341
7.417
6.7106
6.00421
5.29783
4.59145
3.88507
3.17869
2.47231
1.76594
1.05957
0.35319
27.4956
26.8769
26.2518
25.6123
24.9575
24.2897
23.6115
22.9255
22.2336
21.5375
20.8383
20.1368
19.4335
18.7286
18.0223
17.3152
16.6074
15.8995
15.1917
14.4842
13.7769
13.0698
12.3628
11.6561
10.9494
10.2429
9.53634
8.82987
8.12344
7.41702
6.71062
6.00422
5.29784
4.59145
3.88507
3.17869
2.47231
1.76594
1.05957
0.35319
27.4047
26.8081
26.2006
25.5747
24.9304
24.2705
23.5981
22.9162
22.2273
21.5332
20.8354
20.1349
19.4322
18.7277
18.0218
17.3149
16.6074
15.8997
15.192
14.4844
13.7771
13.07
12.363
11.6562
10.9496
10.2429
9.53641
8.82993
8.12347
7.41705
6.71064
6.00424
5.29784
4.59146
3.88508
3.1787
2.47232
1.76594
1.05957
0.353189
27.2746
26.7108
26.1288
25.5226
24.8932
24.2443
23.5799
22.9037
22.2188
21.5275
20.8316
20.1323
19.4304
18.7265
18.0211
17.3146
16.6074
15.8998
15.1922
14.4848
13.7774
13.0703
12.3633
11.6564
10.9497
10.2431
9.5365
8.82999
8.12352
7.41708
6.71066
6.00425
5.29785
4.59146
3.88508
3.1787
2.47232
1.76594
1.05957
0.353188
27.1133
26.5923
26.0429
25.4612
24.8499
24.2142
23.5592
22.8897
22.2094
21.5213
20.8274
20.1295
19.4285
18.7253
18.0204
17.3142
16.6073
15.9
15.1925
14.4851
13.7777
13.0706
12.3635
11.6566
10.9499
10.2432
9.53659
8.83006
8.12357
7.41711
6.71068
6.00426
5.29786
4.59147
3.88508
3.1787
2.47232
1.76594
1.05957
0.353187
26.9326
26.463
25.9515
25.3973
24.8058
24.1841
23.5389
22.8762
22.2005
21.5154
20.8236
20.127
19.4269
18.7242
18.0197
17.3139
16.6073
15.9001
15.1928
14.4854
13.778
13.0708
12.3637
11.6568
10.95
10.2433
9.53667
8.83011
8.12361
7.41714
6.7107
6.00428
5.29787
4.59147
3.88508
3.1787
2.47232
1.76594
1.05956
0.353186
26.7487
26.3365
25.8654
25.3394
24.7672
24.1587
23.5224
22.8655
22.1937
21.5112
20.821
20.1254
19.4259
18.7237
18.0194
17.3138
16.6073
15.9003
15.193
14.4856
13.7783
13.071
12.3639
11.657
10.9501
10.2434
9.53673
8.83015
8.12363
7.41715
6.71071
6.00428
5.29787
4.59147
3.88508
3.1787
2.47232
1.76594
1.05956
0.353186
26.5832
26.2299
25.7978
25.2972
24.7413
24.143
23.5131
22.8602
22.1908
21.5097
20.8203
20.1252
19.4259
18.7238
18.0196
17.314
16.6076
15.9005
15.1932
14.4858
13.7784
13.0712
12.364
11.657
10.9502
10.2434
9.53675
8.83016
8.12364
7.41716
6.71071
6.00428
5.29787
4.59147
3.88508
3.1787
2.47231
1.76594
1.05956
0.353185
26.4625
26.1637
25.7643
25.2819
24.7358
24.1423
23.5146
22.8626
22.1933
21.512
20.8223
20.1268
19.4272
18.7248
18.0204
17.3146
16.608
15.9008
15.1934
14.4859
13.7785
13.0712
12.364
11.657
10.9502
10.2434
9.53673
8.83015
8.12362
7.41714
6.71069
6.00427
5.29786
4.59146
3.88507
3.17869
2.47231
1.76593
1.05956
0.353184
26.4118
26.1623
25.7828
25.3058
24.7587
24.1619
23.5305
22.875
22.2028
21.5191
20.8276
20.1307
19.43
18.7268
18.0218
17.3156
16.6087
15.9012
15.1936
14.486
13.7785
13.0712
12.364
11.6569
10.9501
10.2433
9.53667
8.83009
8.12358
7.41711
6.71067
6.00425
5.29784
4.59145
3.88507
3.17868
2.47231
1.76593
1.05956
0.353183
26.5675
26.2736
25.8608
25.3598
24.7958
24.1872
23.5476
22.8865
22.2104
21.524
20.8306
20.1325
19.431
18.7271
18.0217
17.3152
16.608
15.9005
15.1928
14.4852
13.7778
13.0705
12.3634
11.6565
10.9497
10.243
9.53644
8.82992
8.12345
7.41702
6.71061
6.00421
5.29782
4.59144
3.88506
3.17869
2.47231
1.76594
1.05956
0.353188
26.6241
26.2715
25.8358
25.329
24.7665
24.1622
23.5274
22.8706
22.1982
21.5149
20.8238
20.1274
19.4272
18.7244
18.0198
17.3138
16.6071
15.8999
15.1925
14.4851
13.7778
13.0705
12.3635
11.6566
10.9498
10.2431
9.5365
8.82997
8.12349
7.41705
6.71063
6.00423
5.29783
4.59145
3.88507
3.17869
2.47232
1.76594
1.05957
0.353189
26.7484
26.3363
25.8651
25.3391
24.767
24.1584
23.5221
22.8652
22.1933
21.5107
20.8205
20.1248
19.4252
18.7229
18.0186
17.313
16.6065
15.8995
15.1922
14.4849
13.7777
13.0705
12.3635
11.6566
10.9498
10.2431
9.53653
8.83
8.12351
7.41706
6.71064
6.00423
5.29784
4.59145
3.88507
3.17869