# vtk DataFile Version 2.0
I need something to put here
ASCII

DATASET STRUCTURED_GRID
DIMENSIONS 41 21 21
POINTS 18081 float
0.000000 0.000000 0.000000
0.100000 0.000000 0.000000
0.200000 0.000000 0.000000
0.300000 0.000000 0.000000
0.400000 0.000000 0.000000
0.500000 0.000000 0.000000
0.600000 0.000000 0.000000
0.700000 0.000000 0.000000
0.800000 0.000000 0.000000
0.900000 0.000000 0.000000
1.000000 0.000000 0.000000
1.100000 0.000000 0.000000
1.200000 0.000000 0.000000
1.300000 0.000000 0.000000
1.400000 0.000000 0.000000
1.500000 0.000000 0.000000
1.600000 0.000000 0.000000
1.700000 0.000000 0.000000
1.800000 0.000000 0.000000
1.900000 0.000000 0.000000
2.000000 0.000000 0.000000
2.100000 0.000000 0.000000
2.200000 0.000000 0.000000
2.300000 0.000000 0.000000
2.400000 0.000000 0.000000
2.500000 0.000000 0.000000
2.600000 0.000000 0.000000
2.700000 0.000000 0.000000
2.800000 0.000000 0.000000
2.900000 0.000000 0.000000
3.000000 0.000000 0.000000
3.100000 0.000000 0.000000
3.200000 0.000000 0.000000
3.300000 0.000000 0.000000
3.400000 0.000000 0.000000
3.500000 0.000000 0.000000
3.600000 0.000000 0.000000
3.700000 0.000000 0.000000
3.800000 0.000000 0.000000
3.900000 0.000000 0.000000
4.000000 0.000000 0.000000
0.000000 0.100000 0.000000
0.100000 0.100000 0.000000
0.200000 0.100000 0.000000
0.300000 0.100000 0.000000
0.400000 0.100000 0.000000
0.500000 0.100000 0.000000
0.600000 0.100000 0.000000
0.700000 0.100000 0.000000
0.800000 0.100000 0.000000
0.900000 0.100000 0.000000
1.000000 0.100000 0.000000
1.100000 0.100000 0.000000
1.200000 0.100000 0.000000
1.300000 0.100000 0.000000
1.400000 0.100000 0.000000
1.500000 0.100000 0.000000
1.600000 0.100000 0.000000
1.700000 0.100000 0.000000
1.800000 0.100000 0.000000
1.900000 0.100000 0.000000
2.000000 0.100000 0.000000
2.100000 0.100000 0.000000
2.200000 0.100000 0.000000
2.300000 0.100000 0.000000
2.400000 0.100000 0.000000
2.500000 0.100000 0.000000
2.600000 0.100000 0.000000
2.700000 0.100000 0.000000
2.800000 0.100000 0.000000
2.900000 0.100000 0.000000
3.000000 0.100000 0.000000
3.100000 0.100000 0.000000
3.200000 0.100000 0.000000
3.300000 0.100000 0.000000
3.400000 0.100000 0.000000
3.500000 0.100000 0.000000
3.600000 0.100000 0.000000
3.700000 0.100000 0.000000
3.800000 0.100000 0.000000
3.900000 0.100000 0.000000
4.000000 0.100000 0.000000
0.000000 0.200000 0.000000
0.100000 0.200000 0.000000
0.200000 0.200000 0.000000
0.300000 0.200000 0.000000
0.400000 0.200000 0.000000
0.500000 0.200000 0.000000
0.600000 0.200000 0.000000
0.700000 0.200000 0.000000
0.800000 0.200000 0.000000
0.900000 0.200000 0.000000
1.000000 0.200000 0.000000
1.100000 0.200000 0.000000
1.200000 0.200000 0.000000
1.300000 0.200000 0.000000
1.400000 0.200000 0.000000
1.500000 0.200000 0.000000
1.600000 0.200000 0.000000
1.700000 0.200000 0.000000
1.800000 0.200000 0.000000
1.900000 0.200000 0.000000
2.000000 0.200000 0.000000
2.100000 0.200000 0.000000
2.200000 0.200000 0.000000
2.300000 0.200000 0.000000
2.400000 0.200000 0.000000
2.500000 0.200000 0.000000
2.600000 0.200000 0.000000
2.700000 0.200000 0.000000
2.800000 0.200000 0.000000
2.900000 0.200000 0.000000
3.000000 0.200000 0.000000
3.100000 0.200000 0.000000
3.200000 0.200000 0.000000
3.300000 0.200000 0.000000
3.400000 0.200000 0.000000
3.500000 0.200000 0.000000
3.600000 0.200000 0.000000
3.700000 0.200000 0.000000
3.800000 0.200000 0.000000
3.900000 0.200000 0.000000
4.000000 0.200000 0.000000
0.000000 0.300000 0.000000
0.100000 0.300000 0.000000
0.200000 0.300000 0.000000
0.300000 0.300000 0.000000
0.400000 0.300000 0.000000
0.500000 0.300000 0.000000
0.600000 0.300000 0.000000
0.700000 0.300000 0.000000
0.800000 0.300000 0.000000
0.900000 0.300000 0.000000
1.000000 0.300000 0.000000
1.100000 0.300000 0.000000
1.200000 0.300000 0.000000
1.300000 0.300000 0.000000
1.400000 0.300000 0.000000
1.500000 0.300000 0.000000
1.600000 0.300000 0.000000
1.700000 0.300000 0.000000
1.800000 0.300000 0.000000
1.900000 0.300000 0.000000
2.000000 0.300000 0.000000
2.100000 0.300000 0.000000
2.200000 0.300000 0.000000
2.300000 0.300000 0.000000
2.400000 0.300000 0.000000
2.500000 0.300000 0.000000
2.600000 0.300000 0.000000
2.700000 0.300000 0.000000
2.800000 0.300000 0.000000
2.900000 0.300000 0.000000
3.000000 0.300000 0.000000
3.100000 0.300000 0.000000
3.200000 0.300000 0.000000
3.300000 0.300000 0.000000
3.400000 0.300000 0.000000
3.500000 0.300000 0.000000
3.600000 0.300000 0.000000
3.700000 0.300000 0.000000
3.800000 0.300000 0.000000
3.900000 0.300000 0.000000
4.000000 0.300000 0.000000
0.000000 0.400000 0.000000
0.100000 0.400000 0.000000
0.200000 0.400000 0.000000
0.300000 0.400000 0.000000
0.400000 0.400000 0.000000
0.500000 0.400000 0.000000
0.600000 0.400000 0.000000
0.700000 0.400000 0.000000
0.800000 0.400000 0.000000
0.900000 0.400000 0.000000
1.000000 0.400000 0.000000
1.100000 0.400000 0.000000
1.200000 0.400000 0.000000
1.300000 0.400000 0.000000
1.400000 0.400000 0.000000
1.500000 0.400000 0.000000
1.600000 0.400000 0.000000
1.700000 0.400000 0.000000
1.800000 0.400000 0.000000
1.900000 0.400000 0.000000
2.000000 0.400000 0.000000
2.100000 0.400000 0.000000
2.200000 0.400000 0.000000
2.300000 0.400000 0.000000
2.400000 0.400000 0.000000
2.500000 0.400000 0.000000
2.600000 0.400000 0.000000
2.700000 0.400000 0.000000
2.800000 0.400000 0.000000
2.900000 0.400000 0.000000
3.000000 0.400000 0.000000
3.100000 0.400000 0.000000
3.200000 0.400000 0.000000
3.300000 0.400000 0.000000
3.400000 0.400000 0.000000
3.500000 0.400000 0.000000
3.600000 0.400000 0.000000
3.700000 0.400000 0.000000
3.800000 0.400000 0.000000
3.900000 0.400000 0.000000
4.000000 0.400000 0.000000
0.000000 0.500000 0.000000
0.100000 0.500000 0.000000
0.200000 0.500000 0.000000
0.300000 0.500000 0.000000
0.400000 0.500000 0.000000
0.500000 0.500000 0.000000
0.600000 0.500000 0.000000
0.700000 0.500000 0.000000
0.800000 0.500000 0.000000
0.900000 0.500000 0.000000
1.000000 0.500000 0.000000
1.100000 0.500000 0.000000
1.200000 0.500000 0.000000
1.300000 0.500000 0.000000
1.400000 0.500000 0.000000
1.500000 0.500000 0.000000
1.600000 0.500000 0.000000
1.700000 0.500000 0.000000
1.800000 0.500000 0.000000
1.900000 0.500000 0.000000
2.000000 0.500000 0.000000
2.100000 0.500000 0.000000
2.200000 0.500000 0.000000
2.300000 0.500000 0.000000
2.400000 0.500000 0.000000
2.500000 0.500000 0.000000
2.600000 0.500000 0.000000
2.700000 0.500000 0.000000
2.800000 0.500000 0.000000
2.900000 0.500000 0.000000
3.000000 0.500000 0.000000
3.100000 0.500000 0.000000
3.200000 0.500000 0.000000
3.300000 0.500000 0.000000
3.400000 0.500000 0.000000
3.500000 0.500000 0.000000
3.600000 0.500000 0.000000
3.700000 0.500000 0.000000
3.800000 0.500000 0.000000
3.900000 0.500000 0.000000
4.000000 0.500000 0.000000
0.000000 0.600000 0.000000
0.100000 0.600000 0.000000
0.200000 0.600000 0.000000
0.300000 0.600000 0.000000
0.400000 0.600000 0.000000
0.500000 0.600000 0.000000
0.600000 0.600000 0.000000
0.700000 0.600000 0.000000
0.800000 0.600000 0.000000
0.900000 0.600000 0.000000
1.000000 0.600000 0.000000
1.100000 0.600000 0.000000
1.200000 0.600000 0.000000
1.300000 0.600000 0.000000
1.400000 0.600000 0.000000
1.500000 0.600000 0.000000
1.600000 0.600000 0.000000
1.700000 0.600000 0.000000
1.800000 0.600000 0.000000
1.900000 0.600000 0.000000
2.000000 0.600000 0.000000
2.100000 0.600000 0.000000
2.200000 0.600000 0.000000
2.300000 0.600000 0.000000
2.400000 0.600000 0.000000
2.500000 0.600000 0.000000
2.600000 0.600000 0.000000
2.700000 0.600000 0.000000
2.800000 0.600000 0.000000
2.900000 0.600000 0.000000
3.000000 0.600000 0.000000
3.100000 0.600000 0.000000
3.200000 0.600000 0.000000
3.300000 0.600000 0.000000
3.400000 0.600000 0.000000
3.500000 0.600000 0.000000
3.600000 0.600000 0.000000
3.700000 0.600000 0.000000
3.800000 0.600000 0.000000
3.900000 0.600000 0.000000
4.000000 0.600000 0.000000
0.000000 0.700000 0.000000
0.100000 0.700000 0.000000
0.200000 0.700000 0.000000
0.300000 0.700000 0.000000
0.400000 0.700000 0.000000
0.500000 0.700000 0.000000
0.600000 0.700000 0.000000
0.700000 0.700000 0.000000
0.800000 0.700000 0.000000
0.900000 0.700000 0.000000
1.000000 0.700000 0.000000
1.100000 0.700000 0.000000
1.200000 0.700000 0.000000
1.300000 0.700000 0.000000
1.400000 0.700000 0.000000
1.500000 0.700000 0.000000
1.600000 0.700000 0.000000
1.700000 0.700000 0.000000
1.800000 0.700000 0.000000
1.900000 0.700000 0.000000
2.000000 0.700000 0.000000
2.100000 0.700000 0.000000
2.200000 0.700000 0.000000
2.300000 0.700000 0.000000
2.400000 0.700000 0.000000
2.500000 0.700000 0.000000
2.600000 0.700000 0.000000
2.700000 0.700000 0.000000
2.800000 0.700000 0.000000
2.900000 0.700000 0.000000
3.000000 0.700000 0.000000
3.100000 0.700000 0.000000
3.200000 0.700000 0.000000
3.300000 0.700000 0.000000
3.400000 0.700000 0.000000
3.500000 0.700000 0.000000
3.600000 0.700000 0.000000
3.700000 0.700000 0.000000
3.800000 0.700000 0.000000
3.900000 0.700000 0.000000
4.000000 0.700000 0.000000
0.000000 0.800000 0.000000
0.100000 0.800000 0.000000
0.200000 0.800000 0.000000
0.300000 0.800000 0.000000
0.400000 0.800000 0.000000
0.500000 0.800000 0.000000
0.600000 0.800000 0.000000
0.700000 0.800000 0.000000
0.800000 0.800000 0.000000
0.900000 0.800000 0.000000
1.000000 0.800000 0.000000
1.100000 0.800000 0.000000
1.200000 0.800000 0.000000
1.300000 0.800000 0.000000
1.400000 0.800000 0.000000
1.500000 0.800000 0.000000
1.600000 0.800000 0.000000
1.700000 0.800000 0.000000
1.800000 0.800000 0.000000
1.900000 0.800000 0.000000
2.000000 0.800000 0.000000
2.100000 0.800000 0.000000
2.200000 0.800000 0.000000
2.300000 0.800000 0.000000
2.400000 0.800000 0.000000
2.500000 0.800000 0.000000
2.600000 0.800000 0.000000
2.700000 0.800000 0.000000
2.800000 0.800000 0.000000
2.900000 0.800000 0.000000
3.000000 0.800000 0.000000
3.100000 0.800000 0.000000
3.200000 0.800000 0.000000
3.300000 0.800000 0.000000
3.400000 0.800000 0.000000
3.500000 0.800000 0.000000
3.600000 0.800000 0.000000
[...]
CELL_DATA 16000
SCALARS pressure float 1
LOOKUP_TABLE default
26.7451
26.5626
26.2246
25.773
25.2407
24.6517
24.0228
23.3654
22.6873
21.9938
21.2884
20.5734
19.8502
19.1201
18.3842
17.6433
16.8988
16.1523
15.4055
14.6601
13.9179
13.1799
12.4467
11.7183
10.9946
10.2749
9.55853
8.84489
8.13334
7.42337
6.71454
6.00654
5.29912
4.59208
3.88531
3.1787
2.4722
1.76578
1.05941
0.353096
26.8035
26.5939
26.2413
25.7818
25.2453
24.654
24.0238
23.3658
22.6874
21.9938
21.2883
20.5733
19.8502
19.1202
18.3842
17.6434
16.8988
16.1522
15.4053
14.6599
13.9177
13.1796
12.4465
11.7182
10.9945
10.2748
9.55852
8.8449
8.13337
7.4234
6.71458
6.00658
5.29915
4.59211
3.88533
3.17872
2.47222
1.76579
1.05941
0.353089
26.9236
26.6746
26.2953
25.8179
25.2695
24.6704
24.035
23.3737
22.6932
21.9982
21.2919
20.5764
19.8529
19.1225
18.3862
17.6448
16.8997
16.1523
15.4045
14.6584
13.9157
13.1774
12.4443
11.7162
10.9928
10.2734
9.55744
8.8441
8.13278
7.42299
6.7143
6.00639
5.29903
4.59204
3.88529
3.17869
2.4722
1.76578
1.0594
0.353073
27.0799
26.7865
26.3741
25.8728
25.3077
24.6971
24.054
23.3874
22.7035
22.0063
21.2986
20.5821
19.8579
19.127
18.3899
17.6476
16.9012
16.1523
15.403
14.6556
13.912
13.1733
12.4402
11.7125
10.9896
10.2709
9.55541
8.84256
8.13166
7.42219
6.71374
6.00602
5.29878
4.59188
3.88519
3.17863
2.47217
1.76575
1.05938
0.353059
27.2502
26.9134
26.4661
25.9388
25.3547
24.7306
24.0781
23.4052
22.7171
22.0173
21.3078
20.5901
19.865
19.1332
18.3951
17.6515
16.9033
16.1523
15.4008
14.6515
13.9066
13.1674
12.4344
11.7072
10.9851
10.2672
9.55258
8.84042
8.13009
7.42107
6.71296
6.00548
5.29843
4.59165
3.88504
3.17855
2.47211
1.76572
1.05936
0.353049
27.4165
27.0409
26.5608
26.0079
25.4047
24.7668
24.1046
23.4251
22.7325
22.0298
21.3185
20.5995
19.8734
19.1406
18.4014
17.6561
16.9058
16.1521
15.3979
14.6463
13.9
13.1602
12.4274
11.7009
10.9798
10.2629
9.54921
8.83789
8.12824
7.41975
6.71204
6.00486
5.29801
4.59138
3.88487
3.17844
2.47205
1.76568
1.05934
0.353043
27.5649
27.157
26.6486
26.0729
25.4524
24.8018
24.1305
23.4447
22.748
22.0426
21.3295
20.6092
19.8822
19.1484
18.408
17.6611
16.9084
16.1519
15.3948
14.6407
13.8928
13.1525
12.4199
11.6942
10.9741
10.2584
9.54571
8.83526
8.12632
7.41838
6.71109
6.00421
5.29758
4.5911
3.88469
3.17833
2.47199
1.76565
1.05932
0.353041
27.6849
27.2523
26.7216
26.1276
25.4929
24.8318
24.153
23.4619
22.7617
22.054
21.3394
20.6181
19.8902
19.1556
18.4141
17.6657
16.9109
16.1517
15.3918
14.6354
13.886
13.1453
12.413
11.6881
10.969
10.2542
9.54252
8.83288
8.12458
7.41715
6.71024
6.00363
5.29719
4.59085
3.88454
3.17823
2.47193
1.76562
1.05931
0.35304
27.769
27.3197
26.7737
26.167
25.5224
24.8537
24.1695
23.4747
22.772
22.0626
21.347
20.625
19.8964
19.1612
18.4189
17.6693
16.9128
16.1516
15.3895
14.6313
13.8809
13.1397
12.4077
11.6834
10.965
10.2511
9.54011
8.83108
8.12328
7.41622
6.70959
6.00319
5.29691
4.59066
3.88442
3.17816
2.47189
1.7656
1.0593
0.35304
27.8123
27.3546
26.8009
26.1877
25.5379
24.8654
24.1784
23.4816
22.7776
22.0674
21.3512
20.6288
19.9
19.1644
18.4217
17.6714
16.914
16.1516
15.3883
14.6292
13.8781
13.1368
12.4048
11.6809
10.963
10.2494
9.53883
8.83013
8.1226
7.41574
6.70926
6.00297
5.29676
4.59056
3.88436
3.17813
2.47187
1.76558
1.0593
0.35304
27.8125
27.3548
26.8011
26.1879
25.5381
24.8656
24.1786
23.4819
22.7779
22.0678
21.3516
20.6292
19.9004
19.1648
18.4221
17.6718
16.9143
16.1519
15.3886
14.6294
13.8783
13.1369
12.405
11.681
10.9631
10.2495
9.5389
8.83019
8.12264
7.41577
6.70929
6.00299
5.29677
4.59057
3.88436
3.17813
2.47187
1.76559
1.0593
0.353039
27.7696
27.3203
26.7743
26.1677
25.523
24.8544
24.1703
23.4756
22.7729
22.0637
21.3481
20.6262
19.8976
19.1624
18.4201
17.6704
16.9138
16.1525
15.3903
14.632
13.8815
13.1403
12.4081
11.6837
10.9654
10.2513
9.54031
8.83124
8.1234
7.41632
6.70967
6.00325
5.29694
4.59068
3.88443
3.17817
2.47189
1.7656
1.0593
0.353037
27.6859
27.2533
26.7226
26.1287
25.494
24.833
24.1542
23.4633
22.7633
22.0557
21.3412
20.62
19.8921
19.1575
18.416
17.6674
16.9125
16.1532
15.3931
14.6366
13.8871
13.1461
12.4137
11.6887
10.9695
10.2546
9.54284
8.83313
8.12478
7.4173
6.71035
6.00371
5.29725
4.59089
3.88456
3.17825
2.47194
1.76562
1.05931
0.353034
27.5662
27.1583
26.65
26.0743
25.4538
24.8033
24.1322
23.4466
22.7501
22.0448
21.3319
20.6117
19.8847
19.1509
18.4104
17.6634
16.9106
16.1539
15.3966
14.6423
13.8941
13.1536
12.4209
11.695
10.9748
10.2589
9.54614
8.8356
8.12658
7.41858
6.71124
6.00432
5.29766
4.59115
3.88473
3.17835
2.472
1.76565
1.05932
0.353033
27.418
27.0424
26.5624
26.0095
25.4064
24.7687
24.1066
23.4273
22.735
22.0325
21.3213
20.6024
19.8764
19.1436
18.4043
17.6589
16.9084
16.1545
15.4001
14.6482
13.9016
13.1616
12.4286
11.7019
10.9806
10.2635
9.54973
8.8383
8.12855
7.41999
6.71222
6.00499
5.2981
4.59144
3.88491
3.17846
2.47206
1.76568
1.05933
0.353034
27.2519
26.9151
26.4679
25.9406
25.3566
24.7326
24.0804
23.4076
22.7198
22.0202
21.3109
20.5934
19.8683
19.1365
18.3984
17.6546
16.9062
16.155
15.4032
14.6536
13.9084
13.169
12.4357
11.7083
10.986
10.2679
9.55316
8.84088
8.13044
7.42133
6.71316
6.00563
5.29853
4.59171
3.88508
3.17857
2.47212
1.76572
1.05935
0.353039
27.0818
26.7884
26.3759
25.8748
25.3098
24.6993
24.0563
23.3899
22.7063
22.0094
21.3019
20.5855
19.8615
19.1305
18.3934
17.6509
16.9043
16.1552
15.4056
14.6579
13.9139
13.175
12.4416
11.7137
10.9906
10.2716
9.55603
8.84304
8.13203
7.42247
6.71395
6.00616
5.29888
4.59194
3.88522
3.17865
2.47217
1.76575
1.05937
0.353048
26.9255
26.6765
26.2972
25.8199
25.2715
24.6726
24.0374
23.3762
22.696
22.0013
21.2952
20.5798
19.8564
19.1261
18.3897
17.6483
16.9029
16.1552
15.4072
14.6608
13.9177
13.1792
12.4457
11.7174
10.9938
10.2742
9.55807
8.84458
8.13315
7.42327
6.7145
6.00653
5.29912
4.5921
3.88532
3.17871
2.4722
1.76577
1.05939
0.353062
26.8054
26.5958
26.2432
25.7837
25.2473
24.6561
24.0261
23.3683
22.6902
21.9968
21.2916
20.5767
19.8537
19.1237
18.3877
17.6467
16.9021
16.1552
15.408
14.6623
13.9197
13.1814
12.4479
11.7194
10.9955
10.2756
9.55913
8.84537
8.13373
7.42367
6.71477
6.00671
5.29924
4.59216
3.88536
3.17873
2.47221
1.76578
1.0594
0.353078
26.747
26.5645
26.2265
25.7749
25.2427
24.6538
24.025
23.3678
22.69
21.9968
21.2916
20.5767
19.8536
19.1236
18.3876
17.6466
16.902
16.1552
15.4081
14.6624
13.9199
13.1816
12.4481
11.7195
10.9955
10.2756
9.55913
8.84535
8.13368
7.42362
6.71472
6.00667
5.2992
4.59213
3.88533
3.1787
2.4722
1.76576
1.05939
0.353086
26.8035
26.5939
26.2413
25.7818
25.2453
24.654
24.0238
23.3658
22.6874
21.9938
21.2883
20.5733
19.8502
19.1202
18.3842
17.6434
16.8988
16.1522
15.4053
14.6599
13.9177
13.1796
12.4465
11.7182
10.9945
10.2748
9.55852
8.8449
8.13337
7.4234
6.71458
6.00658
5.29915
4.59211
3.88533
3.17872
2.47222
1.76579
1.05941
0.353089
26.8539
26.6046
26.235
25.7697
25.2324
24.6422
24.0138
23.3574
22.6805
21.9881
21.2836
20.5693
19.8468
19.1174
18.382
17.6417
16.8979
16.152
15.4057
14.6609
13.9191
13.1813
12.4483
11.72
10.9962
10.2763
9.55977
8.84593
8.13419
7.42404
6.71507
6.00695
5.29942
4.59231
3.88547
3.17882
2.47229
1.76584
1.05945
0.3531
26.9739
26.6756
26.2763
25.7933
25.2456
24.6494
24.0175
23.3592
22.6813
21.9884
21.2837
20.5694
19.8469
19.1175
18.3822
17.6419
16.8979
16.1518
15.4053
14.6604
13.9184
13.1807
12.4477
11.7195
10.9959
10.2761
9.55969
8.84592
8.13423
7.42411
6.71515
6.00703
5.29949
4.59237
3.88552
3.17886
2.47232
1.76586
1.05946
0.353096
27.136
26.7839
26.3483
25.841
25.2771
24.6703
24.0315
23.3688
22.6881
21.9935
21.2877
20.5728
19.8499
19.1201
18.3843
17.6435
16.8987
16.1517
15.4042
14.6584
13.916
13.178
12.4451
11.7172
10.9939
10.2745
9.55849
8.84505
8.13362
7.42369
6.71488
6.00686
5.29939
4.59232
3.8855
3.17886
2.47233
1.76587
1.05946
0.353093
27.3145
26.91
26.4369
25.9027
25.3199
24.7
24.0523
23.3837
22.6991
22.002
21.2947
20.5787
19.8551
19.1246
18.3881
17.6462
16.9002
16.1515
15.4025
14.6553
13.9119
13.1736
12.4408
11.7133
10.9906
10.2719
9.55642
8.8435
8.13249
7.4229
6.71434
6.0065
5.29916
4.59217
3.88542
3.17881
2.4723
1.76586
1.05946
0.353092
27.4893
27.0381
26.5297
25.9693
25.3673
24.7338
24.0765
23.4014
22.7126
22.0127
21.3036
20.5863
19.8617
19.1304
18.3929
17.6498
16.902
16.1513
15.4001
14.6512
13.9067
13.1679
12.4353
11.7084
10.9864
10.2685
9.55378
8.84151
8.13104
7.42187
6.71362
6.00602
5.29885
4.59197
3.88529
3.17874
2.47226
1.76584
1.05945
0.353095
27.6452
27.1552
26.6165
26.0327
25.4133
24.7671
24.1008
23.4195
22.7265
22.0239
21.313
20.5945
19.8689
19.1367
18.3982
17.6536
16.904
16.1511
15.3975
14.6466
13.9009
13.1618
12.4293
11.703
10.9819
10.2648
9.55095
8.83939
8.12949
7.42076
6.71285
6.0055
5.2985
4.59175
3.88516
3.17866
2.47222
1.76582
1.05945
0.353101
27.7711
27.2514
26.6888
26.0864
25.4527
24.7959
24.1221
23.4355
22.739
22.0341
21.3216
20.6021
19.8757
19.1426
18.4031
17.6573
16.9059
16.1508
15.3951
14.6423
13.8955
13.156
12.4238
11.6981
10.9777
10.2615
9.54835
8.83743
8.12806
7.41975
6.71215
6.00502
5.29819
4.59155
3.88503
3.17858
2.47217
1.7658
1.05944
0.353107
27.8591
27.3195
26.7406
26.1251
25.4814
24.8171
24.1379
23.4475
22.7484
22.0419
21.3283
20.608
19.8809
19.1473
18.407
17.6602
16.9075
16.1507
15.3932
14.639
13.8914
13.1516
12.4195
11.6943
10.9745
10.2589
9.54637
8.83595
8.12698
7.41898
6.71161
6.00465
5.29795
4.59139
3.88493
3.17852
2.47214
1.76578
1.05944
0.353113
27.9045
27.3548
26.7676
26.1455
25.4966
24.8284
24.1464
23.4541
22.7536
22.0462
21.3321
20.6113
19.8839
19.15
18.4093
17.6619
16.9084
16.1507
15.3922
14.6373
13.8892
13.1492
12.4173
11.6923
10.9728
10.2576
9.54533
8.83517
8.12641
7.41858
6.71134
6.00447
5.29782
4.59131
3.88488
3.17849
2.47213
1.76577
1.05944
0.353115
27.9047
27.355
26.7678
26.1457
25.4968
24.8287
24.1466
23.4544
22.754
22.0465
21.3324
20.6117
19.8843
19.1503
18.4097
17.6622
16.9087
16.151
15.3925
14.6375
13.8894
13.1494
12.4174
11.6924
10.9729
10.2577
9.5454
8.83522
8.12645
7.41861
6.71136
6.00448
5.29783
4.59132
3.88489
3.1785
2.47213
1.76577
1.05944
0.353114
27.8598
27.3201
26.7412
26.1257
25.4821
24.8178
24.1386
23.4484
22.7493
22.0428
21.3294
20.609
19.882
19.1483
18.4081
17.6612
16.9084
16.1515
15.3939
14.6397
13.892
13.1521
12.42
11.6946
10.9748
10.2592
9.54657
8.8361
8.1271
7.41907
6.71168
6.00471
5.29798
4.59142
3.88495
3.17853
2.47215
1.76578
1.05944
0.35311
27.7721
27.2524
26.6898
26.0874
25.4538
24.797
24.1233
23.4369
22.7404
22.0356
21.3233
20.6038
19.8774
19.1444
18.4048
17.6589
16.9074
16.1522
15.3963
14.6434
13.8965
13.1568
12.4245
11.6987
10.9782
10.2619
9.54867
8.83768
8.12825
7.4199
6.71226
6.0051
5.29825
4.59159
3.88506
3.1786
2.47218
1.7658
1.05944
0.353103
27.6465
27.1565
26.6177
26.034
25.4147
24.7685
24.1024
23.4212
22.7284
22.026
21.3152
20.5968
19.8713
19.139
18.4004
17.6558
16.906
16.1529
15.3992
14.6481
13.9022
13.1629
12.4303
11.7038
10.9825
10.2654
9.55137
8.83972
8.12975
7.42096
6.713
6.00561
5.29858
4.59181
3.88519
3.17868
2.47223
1.76582
1.05945
0.353095
27.4909
27.0397
26.5312
25.9708
25.369
24.7355
24.0784
23.4035
22.7148
22.0151
21.3062
20.5891
19.8645
19.1332
18.3956
17.6524
16.9044
16.1536
15.4021
14.653
13.9082
13.1693
12.4364
11.7093
10.9872
10.2691
9.55429
8.84191
8.13135
7.42211
6.7138
6.00615
5.29894
4.59204
3.88534
3.17876
2.47228
1.76584
1.05945
0.353088
27.3162
26.9118
26.4386
25.9045
25.3218
24.702
24.0544
23.386
22.7016
22.0048
21.2976
20.5818
19.8582
19.1277
18.3911
17.6491
16.9029
16.1541
15.4047
14.6573
13.9137
13.1751
12.4421
11.7144
10.9915
10.2726
9.55699
8.84394
8.13284
7.42316
6.71453
6.00664
5.29926
4.59224
3.88546
3.17883
2.47231
1.76586
1.05946
0.353084
27.1378
26.7857
26.3501
25.8429
25.2791
24.6724
24.0337
23.3712
22.6907
21.9963
21.2908
20.576
19.8532
19.1234
18.3876
17.6466
16.9017
16.1544
15.4067
14.6606
13.9179
13.1796
12.4465
11.7183
10.9948
10.2753
9.5591
8.84552
8.13398
7.42397
6.71508
6.007
5.2995
4.59238
3.88554
3.17888
2.47233
1.76587
1.05946
0.353084
26.9758
26.6775
26.2782
25.7952
25.2476
24.6515
24.0198
23.3617
22.684
21.9913
21.2868
20.5727
19.8503
19.1209
18.3855
17.6451
16.901
16.1547
15.4079
14.6626
13.9204
13.1824
12.4491
11.7207
10.9968
10.2769
9.5603
8.8464
8.1346
7.42438
6.71535
6.00717
5.29959
4.59243
3.88556
3.17888
2.47233
1.76586
1.05945
0.353086
26.8559
26.6065
26.2369
25.7716
25.2344
24.6443
24.016
23.3599
22.6832
21.991
21.2867
20.5726
19.8502
19.1208
18.3854
17.645
16.901
16.1548
15.4083
14.6632
13.9211
13.183
12.4497
11.7211
10.9971
10.2771
9.56037
8.8464
8.13455
7.42431
6.71526
6.00708
5.29951
4.59236
3.8855
3.17883
2.47229
1.76583
1.05944
0.353089
26.8054
26.5957
26.2431
25.7836
25.2472
24.656
24.026
23.3681
22.69
21.9966
21.2914
20.5765
19.8535
19.1236
18.3876
17.6466
16.9019
16.1551
15.4079
14.6622
13.9196
13.1813
12.4478
11.7193
10.9954
10.2756
9.55909
8.84534
8.1337
7.42364
6.71475
6.00669
5.29922
4.59215
3.88535
3.17872
2.47221
1.76577
1.05939
0.353076
26.9236
26.6746
26.2953
25.8179
25.2695
24.6704
24.035
23.3737
22.6932
21.9982
21.2919
20.5764
19.8529
19.1225
18.3862
17.6448
16.8997
16.1523
15.4045
14.6584
13.9157
13.1774
12.4443
11.7162
10.9928
10.2734
9.55744
8.8441
8.13278
7.42299
6.7143
6.00639
5.29903
4.59204
3.88529
3.1787
2.4722
1.76578
1.0594
0.353073
26.9739
26.6756
26.2763
25.7933
25.2456
24.6494
24.0175
23.3592
22.6813
21.9884
21.2837
20.5694
19.8469
19.1175
18.3822
17.6419
16.8979
16.1518
15.4053
14.6604
13.9184
13.1807
12.4477
11.7195
10.9959
10.2761
9.55969
8.84592
8.13423
7.42411
6.71515
6.00703
5.29949
4.59237
3.88552
3.17886
2.47232
1.76586
1.05946
0.353096
27.0942
26.7416
26.3096
25.8082
25.2507
24.6496
24.0154
23.3562
22.6781
21.9853
21.281
20.567
19.8449
19.1159
18.3809
17.641
16.8974
16.1515
15.4053
14.6605
13.9188
13.1812
12.4484
11.7203
10.9967
10.2769
9.56043
8.84659
8.1348
7.42458
6.71553
6.00733
5.29973
4.59255
3.88566
3.17897
2.4724
1.76592
1.05949
0.3531
27.2598
26.8484
26.3773
25.8506
25.2769
24.6656
24.0251
23.3622
22.6818
21.9879
21.2828
20.5685
19.8463
19.1172
18.382
17.6419
16.8978
16.1513
15.4043
14.6589
13.9169
13.1793
12.4467
11.7189
10.9956
10.2761
9.55991
8.84626
8.13463
7.42451
6.71552
6.00736
5.29977
4.5926
3.88571
3.17901
2.47244
1.76595
1.05951
0.353103
27.4442
26.9754
26.464
25.9093
25.3164
24.6921
24.043
23.3745
22.6907
21.9946
21.2882
20.5731
19.8503
19.1207
18.3851
17.6441
16.8989
16.151
15.4025
14.6559
13.9132
13.1754
12.443
11.7157
10.993
10.2741
9.5584
8.84518
8.13387
7.42401
6.7152
6.00716
5.29966
4.59255
3.88569
3.17901
2.47245
1.76596
1.05952
0.35311
27.6259
27.1055
26.5563
25.9741
25.3617
24.7237
24.0652
23.3904
22.7026
22.0039
21.296
20.5797
19.8561
19.1258
18.3894
17.6474
16.9006
16.1506
15.4
14.6517
13.908
13.17
12.438
11.7113
10.9893
10.2713
9.55623
8.84359
8.13274
7.42322
6.71468
6.00682
5.29945
4.59242
3.88562
3.17898
2.47243
1.76596
1.05953
0.353122
27.7883
27.225
26.6433
26.0367
25.4064
24.7556
24.0881
23.4073
22.7154
22.0142
21.3046
20.5872
19.8627
19.1316
18.3944
17.6511
16.9026
16.1502
15.397
14.6467
13.902
13.1639
12.4323
11.7064
10.9853
10.2681
9.5538
8.84179
8.13145
7.42232
6.71406
6.00642
5.29919
4.59226
3.88553
3.17892
2.47241
1.76595
1.05953
0.353135
27.9196
27.3235
26.7161
26.09
25.445
24.7835
24.1085
23.4225
22.7272
22.0238
21.3128
20.5944
19.869
19.1372
18.3992
17.6548
16.9045
16.1499
15.3941
14.6419
13.8963
13.1581
12.4269
11.7017
10.9815
10.2651
9.55151
8.8401
8.13024
7.42147
6.71348
6.00603
5.29894
4.5921
3.88543
3.17887
2.47238
1.76594
1.05954
0.353149
28.0115
27.3932
26.7683
26.1286
25.4733
24.8042
24.1238
23.434
22.7362
22.0312
21.3191
20.6
19.874
19.1417
18.4031
17.6577
16.9061
16.1496
15.3918
14.6382
13.8918
13.1535
12.4227
11.6981
10.9785
10.2627
9.54976
8.83881
8.12931
7.42082
6.71304
6.00573
5.29875
4.59198
3.88536
3.17883
2.47236
1.76593
1.05954
0.35316
28.0589
27.4293
26.7955
26.1489
25.4883
24.8153
24.132
23.4403
22.7412
22.0353
21.3227
20.6032
19.8769
19.1443
18.4053
17.6595
16.907
16.1496
15.3907
14.6362
13.8894
13.1511
12.4205
11.6962
10.977
10.2615
9.54884
8.83813
8.12882
7.42048
6.7128
6.00558
5.29865
4.59192
3.88532
3.17881
2.47235
1.76593
1.05954
0.353165
28.0591
27.4295
26.7957
26.1491
25.4885
24.8155
24.1323
23.4405
22.7415
22.0357
21.3231
20.6036
19.8772
19.1447
18.4057
17.6598
16.9073
16.1498
15.391
14.6364
13.8896
13.1513
12.4206
11.6963
10.9771
10.2616
9.5489
8.83818
8.12886
7.42051
6.71283
6.00559
5.29866
4.59193
3.88533
3.17881
2.47235
1.76593
1.05954
0.353164
28.0122
27.3938
26.7689
26.1292
25.4739
24.8049
24.1245
23.4348
22.7371
22.0322
21.3202
20.6011
19.875
19.1428
18.4041
17.6587
16.907
16.1504
15.3926
14.6388
13.8924
13.154
12.4231
11.6985
10.9788
10.263
9.54995
8.83896
8.12943
7.42091
6.71311
6.00578
5.29879
4.59201
3.88538
3.17884
2.47237
1.76594
1.05954
0.353157
27.9207
27.3244
26.7171
26.091
25.446
24.7846
24.1097
23.4238
22.7286
22.0253
21.3144
20.5961
19.8707
19.1389
18.4008
17.6564
16.906
16.1512
15.3953
14.643
13.8972
13.1589
12.4276
11.7023
10.982
10.2654
9.55182
8.84035
8.13043
7.42162
6.71359
6.00611
5.299
4.59215
3.88546
3.17889
2.47239
1.76594
1.05954
0.353144
27.7897
27.2264
26.6445
26.038
25.4077
24.757
24.0897
23.409
22.7173
22.0162
21.3068
20.5895
19.865
19.1339
18.3966
17.6532
16.9045
16.1521
15.3986
14.6482
13.9033
13.165
12.4332
11.7072
10.9859
10.2686
9.55421
8.84212
8.13171
7.42252
6.71421
6.00653
5.29927
4.59231
3.88556
3.17895
2.47242
1.76595
1.05953
0.353129
27.6275
27.1071
26.5578
25.9757
25.3633
24.7254
24.0671
23.3925
22.7048
22.0063
21.2985
20.5824
19.8588
19.1285
18.392
17.6499
16.903
16.1528
15.4019
14.6534
13.9095
13.1713
12.4391
11.7122
10.9901
10.2719
9.55673
8.84398
8.13305
7.42346
6.71485
6.00695
5.29954
4.59248
3.88566
3.179
2.47244
1.76596
1.05953
0.353114
27.446
26.9771
26.4657
25.911
25.3182
24.694
24.0451
23.3768
22.6931
21.9972
21.2911
20.5761
19.8533
19.1238
18.3881
17.647
16.9016
16.1535
15.4047
14.6579
13.9149
13.1769
12.4443
11.7168
10.9938
10.2748
9.55895
8.84562
8.13421
7.42427
6.7154
6.0073
5.29976
4.59261
3.88573
3.17903
2.47246
1.76596
1.05952
0.353102
27.2617
26.8502
26.3791
25.8525
25.2789
24.6677
24.0273
23.3646
22.6844
21.9907
21.2858
20.5717
19.8495
19.1204
18.3853
17.645
16.9007
16.154
15.4067
14.6611
13.9188
13.1809
12.448
11.72
10.9965
10.2769
9.5605
8.84673
8.13499
7.42478
6.71572
6.0075
5.29987
4.59267
3.88575
3.17903
2.47244
1.76595
1.05951
0.353094
27.0962
26.7435
26.3115
25.8102
25.2527
24.6517
24.0176
23.3586
22.6808
21.9882
21.2841
20.5703
19.8483
19.1193
18.3843
17.6443
16.9004
16.1543
15.4078
14.6627
13.9207
13.1829
12.4498
11.7215
10.9976
10.2777
9.56104
8.84706
8.13516
7.42485
6.71573
6.00747
5.29982
4.59261
3.88569
3.17898
2.4724
1.76591
1.05948
0.353089
26.9758
26.6775
26.2781
25.7952
25.2475
24.6515
24.0197
23.3616
22.684
21.9913
21.2868
20.5727
19.8503
19.121
18.3856
17.6452
16.901
16.1547
15.4079
14.6626
13.9204
13.1824
12.4491
11.7207
10.9968
10.2769
9.56027
8.84637
8.13457
7.42436
6.71533
6.00715
5.29957
4.59242
3.88555
3.17887
2.47232
1.76585
1.05945
0.353084
26.9255
26.6765
26.2971
25.8197
25.2713
24.6723
24.0371
23.376
22.6957
22.001
21.295
20.5796
19.8562
19.1259
18.3896
17.6481
16.9028
16.1551
15.4071
14.6607
13.9176
13.1791
12.4456
11.7173
10.9937
10.2741
9.55799
8.84451
8.13309
7.42321
6.71445
6.00649
5.29909
4.59206
3.88529
3.17869
2.47218
1.76575
1.05938
0.353058
27.0799
26.7865
26.3741
25.8728
25.3077
24.6971
24.054
23.3874
22.7035
22.0063
21.2986
20.5821
19.8579
19.127
18.3899
17.6476
16.9012
16.1523
15.403
14.6556
13.912
13.1733
12.4402
11.7125
10.9896
10.2709
9.55541
8.84256
8.13166
7.42219
6.71374
6.00602
5.29878
4.59188
3.88519
3.17863
2.47217
1.76575
1.05938
0.353059
27.1359
26.7839
26.3483
25.841
25.2771
24.6703
24.0315
23.3688
22.6881
21.9935
21.2877
20.5728
19.8499
19.1201
18.3843
17.6435
16.8987
16.1517
15.4042
14.6584
13.916
13.178
12.4451
11.7172
10.9939
10.2745
9.55849
8.84505
8.13362
7.42369
6.71488
6.00686
5.29939
4.59232
3.8855
3.17886
2.47233
1.76587
1.05946
0.353093
27.2598
26.8484
26.3773
25.8506
25.2769
24.6656
24.0251
23.3622
22.6818
21.9879
21.2828
20.5685
19.8463
19.1172
18.382
17.6419
16.8978
16.1513
15.4043
14.6589
13.9169
13.1793
12.4467
11.7189
10.9956
10.2761
9.55991
8.84626
8.13463
7.42451
6.71552
6.00736
5.29977
4.5926
3.88571
3.17901
2.47244
1.76595
1.05951