# vtk DataFile Version 2.0
I need something to put here
ASCII

DATASET STRUCTURED_GRID
DIMENSIONS 41 21 21
POINTS 18081 float
0.000000 0.000000 0.000000
0.100000 0.000000 0.000000
0.200000 0.000000 0.000000
0.300000 0.000000 0.000000
0.400000 0.000000 0.000000
0.500000 0.000000 0.000000
0.600000 0.000000 0.000000
0.700000 0.000000 0.000000
0.800000 0.000000 0.000000
0.900000 0.000000 0.000000
1.000000 0.000000 0.000000
1.100000 0.000000 0.000000
1.200000 0.000000 0.000000
1.300000 0.000000 0.000000
1.400000 0.000000 0.000000
1.500000 0.000000 0.000000
1.600000 0.000000 0.000000
1.700000 0.000000 0.000000
1.800000 0.000000 0.000000
1.900000 0.000000 0.000000
2.000000 0.000000 0.000000
2.100000 0.000000 0.000000
2.200000 0.000000 0.000000
2.300000 0.000000 0.000000
2.400000 0.000000 0.000000
2.500000 0.000000 0.000000
2.600000 0.000000 0.000000
2.700000 0.000000 0.000000
2.800000 0.000000 0.000000
2.900000 0.000000 0.000000
3.000000 0.000000 0.000000
3.100000 0.000000 0.000000
3.200000 0.000000 0.000000
3.300000 0.000000 0.000000
3.400000 0.000000 0.000000
3.500000 0.000000 0.000000
3.600000 0.000000 0.000000
3.700000 0.000000 0.000000
3.800000 0.000000 0.000000
3.900000 0.000000 0.000000
4.000000 0.000000 0.000000
0.000000 0.100000 0.000000
0.100000 0.100000 0.000000
0.200000 0.100000 0.000000
0.300000 0.100000 0.000000
0.400000 0.100000 0.000000
0.500000 0.100000 0.000000
0.600000 0.100000 0.000000
0.700000 0.100000 0.000000
0.800000 0.100000 0.000000
0.900000 0.100000 0.000000
1.000000 0.100000 0.000000
1.100000 0.100000 0.000000
1.200000 0.100000 0.000000
1.300000 0.100000 0.000000
1.400000 0.100000 0.000000
1.500000 0.100000 0.000000
1.600000 0.100000 0.000000
1.700000 0.100000 0.000000
1.800000 0.100000 0.000000
1.900000 0.100000 0.000000
2.000000 0.100000 0.000000
2.100000 0.100000 0.000000
2.200000 0.100000 0.000000
2.300000 0.100000 0.000000
2.400000 0.100000 0.000000
2.500000 0.100000 0.000000
2.600000 0.100000 0.000000
2.700000 0.100000 0.000000
2.800000 0.100000 0.000000
2.900000 0.100000 0.000000
3.000000 0.100000 0.000000
3.100000 0.100000 0.000000
3.200000 0.100000 0.000000
3.300000 0.100000 0.000000
3.400000 0.100000 0.000000
3.500000 0.100000 0.000000
3.600000 0.100000 0.000000
3.700000 0.100000 0.000000
3.800000 0.100000 0.000000
3.900000 0.100000 0.000000
4.000000 0.100000 0.000000
0.000000 0.200000 0.000000
0.100000 0.200000 0.000000
0.200000 0.200000 0.000000
0.300000 0.200000 0.000000
0.400000 0.200000 0.000000
0.500000 0.200000 0.000000
0.600000 0.200000 0.000000
0.700000 0.200000 0.000000
0.800000 0.200000 0.000000
0.900000 0.200000 0.000000
1.000000 0.200000 0.000000
1.100000 0.200000 0.000000
1.200000 0.200000 0.000000
1.300000 0.200000 0.000000
1.400000 0.200000 0.000000
1.500000 0.200000 0.000000
1.600000 0.200000 0.000000
1.700000 0.200000 0.000000
1.800000 0.200000 0.000000
1.900000 0.200000 0.000000
2.000000 0.200000 0.000000
2.100000 0.200000 0.000000
2.200000 0.200000 0.000000
2.300000 0.200000 0.000000
2.400000 0.200000 0.000000
2.500000 0.200000 0.000000
2.600000 0.200000 0.000000
2.700000 0.200000 0.000000
2.800000 0.200000 0.000000
2.900000 0.200000 0.000000
3.000000 0.200000 0.000000
3.100000 0.200000 0.000000
3.200000 0.200000 0.000000
3.300000 0.200000 0.000000
3.400000 0.200000 0.000000
3.500000 0.200000 0.000000
3.600000 0.200000 0.000000
3.700000 0.200000 0.000000
3.800000 0.200000 0.000000
3.900000 0.200000 0.000000
4.000000 0.200000 0.000000
0.000000 0.300000 0.000000
0.100000 0.300000 0.000000
0.200000 0.300000 0.000000
0.300000 0.300000 0.000000
0.400000 0.300000 0.000000
0.500000 0.300000 0.000000
0.600000 0.300000 0.000000
0.700000 0.300000 0.000000
0.800000 0.300000 0.000000
0.900000 0.300000 0.000000
1.000000 0.300000 0.000000
1.100000 0.300000 0.000000
1.200000 0.300000 0.000000
1.300000 0.300000 0.000000
1.400000 0.300000 0.000000
1.500000 0.300000 0.000000
1.600000 0.300000 0.000000
1.700000 0.300000 0.000000
1.800000 0.300000 0.000000
1.900000 0.300000 0.000000
2.000000 0.300000 0.000000
2.100000 0.300000 0.000000
2.200000 0.300000 0.000000
2.300000 0.300000 0.000000
2.400000 0.300000 0.000000
2.500000 0.300000 0.000000
2.600000 0.300000 0.000000
2.700000 0.300000 0.000000
2.800000 0.300000 0.000000
2.900000 0.300000 0.000000
3.000000 0.300000 0.000000
3.100000 0.300000 0.000000
3.200000 0.300000 0.000000
3.300000 0.300000 0.000000
3.400000 0.300000 0.000000
3.500000 0.300000 0.000000
3.600000 0.300000 0.000000
3.700000 0.300000 0.000000
3.800000 0.300000 0.000000
3.900000 0.300000 0.000000
4.000000 0.300000 0.000000
0.000000 0.400000 0.000000
0.100000 0.400000 0.000000
0.200000 0.400000 0.000000
0.300000 0.400000 0.000000
0.400000 0.400000 0.000000
0.500000 0.400000 0.000000
0.600000 0.400000 0.000000
0.700000 0.400000 0.000000
0.800000 0.400000 0.000000
0.900000 0.400000 0.000000
1.000000 0.400000 0.000000
1.100000 0.400000 0.000000
1.200000 0.400000 0.000000
1.300000 0.400000 0.000000
1.400000 0.400000 0.000000
1.500000 0.400000 0.000000
1.600000 0.400000 0.000000
1.700000 0.400000 0.000000
1.800000 0.400000 0.000000
1.900000 0.400000 0.000000
2.000000 0.400000 0.000000
2.100000 0.400000 0.000000
2.200000 0.400000 0.000000
2.300000 0.400000 0.000000
2.400000 0.400000 0.000000
2.500000 0.400000 0.000000
2.600000 0.400000 0.000000
2.700000 0.400000 0.000000
2.800000 0.400000 0.000000
2.900000 0.400000 0.000000
3.000000 0.400000 0.000000
3.100000 0.400000 0.000000
3.200000 0.400000 0.000000
3.300000 0.400000 0.000000
3.400000 0.400000 0.000000
3.500000 0.400000 0.000000
3.600000 0.400000 0.000000
3.700000 0.400000 0.000000
3.800000 0.400000 0.000000
3.900000 0.400000 0.000000
4.000000 0.400000 0.000000
0.000000 0.500000 0.000000
0.100000 0.500000 0.000000
0.200000 0.500000 0.000000
0.300000 0.500000 0.000000
0.400000 0.500000 0.000000
0.500000 0.500000 0.000000
0.600000 0.500000 0.000000
0.700000 0.500000 0.000000
0.800000 0.500000 0.000000
0.900000 0.500000 0.000000
1.000000 0.500000 0.000000
1.100000 0.500000 0.000000
1.200000 0.500000 0.000000
1.300000 0.500000 0.000000
1.400000 0.500000 0.000000
1.500000 0.500000 0.000000
1.600000 0.500000 0.000000
1.700000 0.500000 0.000000
1.800000 0.500000 0.000000
1.900000 0.500000 0.000000
2.000000 0.500000 0.000000
2.100000 0.500000 0.000000
2.200000 0.500000 0.000000
2.300000 0.500000 0.000000
2.400000 0.500000 0.000000
2.500000 0.500000 0.000000
2.600000 0.500000 0.000000
2.700000 0.500000 0.000000
2.800000 0.500000 0.000000
2.900000 0.500000 0.000000
3.000000 0.500000 0.000000
3.100000 0.500000 0.000000
3.200000 0.500000 0.000000
3.300000 0.500000 0.000000
3.400000 0.500000 0.000000
3.500000 0.500000 0.000000
3.600000 0.500000 0.000000
3.700000 0.500000 0.000000
3.800000 0.500000 0.000000
3.900000 0.500000 0.000000
4.000000 0.500000 0.000000
0.000000 0.600000 0.000000
0.100000 0.600000 0.000000
0.200000 0.600000 0.000000
0.300000 0.600000 0.000000
0.400000 0.600000 0.000000
0.500000 0.600000 0.000000
0.600000 0.600000 0.000000
0.700000 0.600000 0.000000
0.800000 0.600000 0.000000
0.900000 0.600000 0.000000
1.000000 0.600000 0.000000
1.100000 0.600000 0.000000
1.200000 0.600000 0.000000
1.300000 0.600000 0.000000
1.400000 0.600000 0.000000
1.500000 0.600000 0.000000
1.600000 0.600000 0.000000
1.700000 0.600000 0.000000
1.800000 0.600000 0.000000
1.900000 0.600000 0.000000
2.000000 0.600000 0.000000
2.100000 0.600000 0.000000
2.200000 0.600000 0.000000
2.300000 0.600000 0.000000
2.400000 0.600000 0.000000
2.500000 0.600000 0.000000
2.600000 0.600000 0.000000
2.700000 0.600000 0.000000
2.800000 0.600000 0.000000
2.900000 0.600000 0.000000
3.000000 0.600000 0.000000
3.100000 0.600000 0.000000
3.200000 0.600000 0.000000
3.300000 0.600000 0.000000
3.400000 0.600000 0.000000
3.500000 0.600000 0.000000
3.600000 0.600000 0.000000
3.700000 0.600000 0.000000
3.800000 0.600000 0.000000
3.900000 0.600000 0.000000
4.000000 0.600000 0.000000
0.000000 0.700000 0.000000
0.100000 0.700000 0.000000
0.200000 0.700000 0.000000
0.300000 0.700000 0.000000
0.400000 0.700000 0.000000
0.500000 0.700000 0.000000
0.600000 0.700000 0.000000
0.700000 0.700000 0.000000
0.800000 0.700000 0.000000
0.900000 0.700000 0.000000
1.000000 0.700000 0.000000
1.100000 0.700000 0.000000
1.200000 0.700000 0.000000
1.300000 0.700000 0.000000
1.400000 0.700000 0.000000
1.500000 0.700000 0.000000
1.600000 0.700000 0.000000
1.700000 0.700000 0.000000
1.800000 0.700000 0.000000
1.900000 0.700000 0.000000
2.000000 0.700000 0.000000
2.100000 0.700000 0.000000
2.200000 0.700000 0.000000
2.300000 0.700000 0.000000
2.400000 0.700000 0.000000
2.500000 0.700000 0.000000
2.600000 0.700000 0.000000
2.700000 0.700000 0.000000
2.800000 0.700000 0.000000
2.900000 0.700000 0.000000
3.000000 0.700000 0.000000
3.100000 0.700000 0.000000
3.200000 0.700000 0.000000
3.300000 0.700000 0.000000
3.400000 0.700000 0.000000
3.500000 0.700000 0.000000
3.600000 0.700000 0.000000
3.700000 0.700000 0.000000
3.800000 0.700000 0.000000
3.900000 0.700000 0.000000
4.000000 0.700000 0.000000
0.000000 0.800000 0.000000
0.100000 0.800000 0.000000
0.200000 0.800000 0.000000
0.300000 0.800000 0.000000
0.400000 0.800000 0.000000
0.500000 0.800000 0.000000
0.600000 0.800000 0.000000
0.700000 0.800000 0.000000
0.800000 0.800000 0.000000
0.900000 0.800000 0.000000
1.000000 0.800000 0.000000
1.100000 0.800000 0.000000
1.200000 0.800000 0.000000
1.300000 0.800000 0.000000
1.400000 0.800000 0.000000
1.500000 0.800000 0.000000
1.600000 0.800000 0.000000
1.700000 0.800000 0.000000
1.800000 0.800000 0.000000
1.900000 0.800000 0.000000
2.000000 0.800000 0.000000
2.100000 0.800000 0.000000
2.200000 0.800000 0.000000
2.300000 0.800000 0.000000
2.400000 0.800000 0.000000
2.500000 0.800000 0.000000
2.600000 0.800000 0.000000
2.700000 0.800000 0.000000
2.800000 0.800000 0.000000
2.900000 0.800000 0.000000
3.000000 0.800000 0.000000
3.100000 0.800000 0.000000
3.200000 0.800000 0.000000
3.300000 0.800000 0.000000
3.400000 0.800000 0.000000
3.500000 0.800000 0.000000
3.600000 0.800000 0.000000
[...]
CELL_DATA 16000
SCALARS pressure float 1
LOOKUP_TABLE default
42.5661
42.3963
42.057
41.5702
40.9518
40.2086
39.3386
38.3338
37.1829
35.8762
34.4107
32.7938
31.0455
29.1963
27.2837
25.3475
23.4275
21.5608
19.7806
18.1137
16.5774
15.1783
13.9126
12.7685
11.7294
10.7768
9.89282
9.06134
8.26893
7.5048
6.76065
6.03028
5.30919
4.59421
3.88313
3.17449
2.46736
1.76119
1.05579
0.351288
42.6182
42.4254
42.0733
41.5794
40.9572
40.2123
39.3421
38.3379
37.188
35.882
34.4165
32.7988
31.0489
29.1978
27.2834
25.3456
23.4242
21.5564
19.7753
18.108
16.572
15.1738
13.9094
12.7666
11.7286
10.7769
9.89348
9.06232
8.27004
7.5059
6.76165
6.03115
5.30992
4.5948
3.8836
3.17486
2.46763
1.76137
1.05585
0.351172
42.7402
42.5146
42.1421
41.6364
41.0092
40.2645
39.3981
38.3996
37.2548
35.9509
34.4823
32.8554
31.0912
29.2229
27.2906
25.3355
23.3979
21.5156
19.723
18.0486
16.5107
15.1153
13.8573
12.7228
11.6936
10.7501
9.87363
9.04814
8.2602
7.49928
6.75734
6.02844
5.30829
4.59387
3.88311
3.17463
2.46752
1.76128
1.0557
0.350931
42.9151
42.6504
42.2525
41.7328
41.101
40.3593
39.5015
38.5141
37.3788
36.0786
34.6038
32.9594
31.1682
29.2678
27.3024
25.3152
23.3477
21.4385
19.6244
17.9366
16.3951
15.0053
13.7592
12.6402
11.6273
10.6988
9.83543
9.0205
8.24075
7.48594
6.74843
6.02264
5.30463
4.59164
3.88181
3.17389
2.46711
1.76101
1.05546
0.350716
43.1226
42.8178
42.3931
41.8592
41.2244
40.4893
39.6451
38.6741
37.5531
36.2583
34.7746
33.1048
31.2747
29.3286
27.3165
25.2847
23.2752
21.328
19.4833
17.7768
16.2307
14.8492
13.6208
12.524
11.5341
10.6271
9.78194
8.98176
8.21342
7.46714
6.7358
6.01436
5.29935
4.58837
3.87985
3.17277
2.46647
1.76064
1.05521
0.35057
43.3411
42.9993
42.5492
42.0026
41.3673
40.6421
39.8155
38.8656
37.7626
36.4751
34.9809
33.2799
31.4017
29.3998
27.3316
25.2464
23.1868
21.1937
19.3115
17.5822
16.0311
14.6606
13.4542
12.3849
11.4231
10.5418
9.7185
8.9359
8.1811
7.44489
6.72084
6.00454
5.29306
4.58446
3.8775
3.1714
2.46571
1.76023
1.055
0.350501
43.5491
43.1756
42.7038
42.1472
41.5134
40.8002
39.9935
39.0668
37.9839
36.705
35.2
33.4653
31.5353
29.4737
27.3465
25.2055
23.0933
21.0513
19.129
17.3753
15.8193
14.4613
13.2789
12.239
11.3071
10.4529
9.65261
8.88836
8.14765
7.42189
6.70537
5.99438
5.28655
4.5804
3.87505
3.16999
2.46494
1.75984
1.05484
0.350495
43.726
43.3279
42.8393
42.2755
41.6447
40.9435
40.1558
39.2513
38.1876
36.9172
35.4023
33.6363
31.6579
29.5413
27.3599
25.1681
23.0078
20.9208
18.9611
17.1848
15.6244
14.2782
13.1183
12.1058
11.2014
10.3722
9.59287
8.84534
8.11742
7.40113
6.69143
5.98522
5.28068
4.57675
3.87285
3.16871
2.46425
1.7595
1.05472
0.350525
43.8545
43.4397
42.9397
42.3716
41.7436
41.0522
40.2794
39.3923
38.3436
37.0798
35.5575
33.7674
31.7519
29.5931
27.3704
25.1399
22.9428
20.8215
18.8331
17.0394
15.4756
14.1384
12.9958
12.0043
11.1211
10.3109
9.54755
8.81274
8.09453
7.38542
6.68088
5.9783
5.27625
4.57399
3.87119
3.16776
2.46373
1.75926
1.05465
0.350565
43.9221
43.4989
42.9932
42.423
41.7968
41.1107
40.3463
39.4686
38.4281
37.1679
35.6415
33.8384
31.8028
29.6212
27.3763
25.1248
22.9079
20.768
18.7642
16.961
15.3953
14.0629
12.9297
11.9495
11.0777
10.2779
9.52314
8.79519
8.08222
7.37698
6.67522
5.97459
5.27387
4.5725
3.87029
3.16724
2.46346
1.75913
1.05462
0.350591
43.9222
43.4989
42.9932
42.423
41.7968
41.1107
40.3462
39.4686
38.4281
37.1678
35.6414
33.8383
31.8028
29.6212
27.3763
25.1248
22.908
20.7681
18.7642
16.9611
15.3954
14.0629
12.9297
11.9495
11.0777
10.2779
9.52313
8.79519
8.08222
7.37697
6.67521
5.97459
5.27387
4.5725
3.87029
3.16724
2.46346
1.75913
1.05462
0.350589
43.8546
43.4398
42.9398
42.3716
41.7436
41.0522
40.2794
39.3923
38.3436
37.0797
35.5574
33.7674
31.7519
29.5931
27.3704
25.1399
22.9429
20.8216
18.8331
17.0395
15.4757
14.1384
12.9958
12.0043
11.1211
10.3109
9.54754
8.81273
8.09453
7.38542
6.68088
5.9783
5.27625
4.57398
3.87119
3.16776
2.46373
1.75926
1.05465
0.350559
43.7261
43.328
42.8394
42.2756
41.6447
40.9435
40.1558
39.2513
38.1876
36.9171
35.4023
33.6363
31.6579
29.5413
27.3599
25.1681
23.0078
20.9209
18.9611
17.1848
15.6245
14.2782
13.1183
12.1058
11.2014
10.3722
9.59284
8.84531
8.1174
7.40111
6.69142
5.98522
5.28068
4.57674
3.87285
3.16871
2.46425
1.7595
1.05472
0.350516
43.5492
43.1758
42.7039
42.1473
41.5136
40.8004
39.9936
39.067
37.984
36.7051
35.2001
33.4654
31.5353
29.4738
27.3465
25.2055
23.0932
21.0513
19.1289
17.3753
15.8192
14.4612
13.2788
12.2389
11.307
10.4529
9.65255
8.88832
8.14762
7.42187
6.70536
5.99437
5.28654
4.5804
3.87505
3.16999
2.46494
1.75983
1.05483
0.350482
43.3413
42.9995
42.5494
42.0028
41.3675
40.6423
39.8158
38.8659
37.7629
36.4754
34.9812
33.2801
31.4019
29.4
27.3317
25.2464
23.1867
21.1935
19.3113
17.582
16.0309
14.6604
13.454
12.3847
11.4229
10.5416
9.7184
8.93582
8.18105
7.44485
6.72081
6.00452
5.29305
4.58445
3.8775
3.1714
2.46571
1.76023
1.05499
0.350487
43.1228
42.8181
42.3933
41.8594
41.2247
40.4897
39.6455
38.6746
37.5535
36.2588
34.7751
33.1052
31.275
29.3289
27.3166
25.2847
23.2751
21.3278
19.483
17.7764
16.2303
14.8488
13.6204
12.5237
11.5339
10.6269
9.78179
8.98165
8.21334
7.46708
6.73576
6.01434
5.29933
4.58836
3.87985
3.17276
2.46647
1.76064
1.05521
0.350555
42.9154
42.6507
42.2528
41.7331
41.1014
40.3597
39.502
38.5146
37.3795
36.0793
34.6044
32.9599
31.1686
29.2681
27.3025
25.3152
23.3475
21.4382
19.624
17.9362
16.3946
15.0048
13.7588
12.6399
11.6269
10.6986
9.83524
9.02035
8.24064
7.48586
6.74837
6.02261
5.30461
4.59163
3.8818
3.17389
2.46711
1.76101
1.05545
0.350701
42.7406
42.515
42.1425
41.6368
41.0096
40.265
39.3987
38.4003
37.2555
35.9517
34.483
32.856
31.0916
29.2232
27.2908
25.3355
23.3977
21.5153
19.7226
18.0481
16.5101
15.1148
13.8568
12.7224
11.6932
10.7498
9.8734
9.04796
8.26007
7.49919
6.75728
6.0284
5.30826
4.59385
3.8831
3.17462
2.46752
1.76128
1.05569
0.350919
42.6186
42.4258
42.0737
41.5798
40.9576
40.2128
39.3428
38.3387
37.1888
35.8828
34.4173
32.7995
31.0494
29.1982
27.2836
25.3456
23.424
21.556
19.7748
18.1075
16.5714
15.1732
13.9088
12.7661
11.7282
10.7766
9.89322
9.06213
8.26989
7.50579
6.76158
6.0311
5.30989
4.59478
3.88358
3.17485
2.46762
1.76137
1.05585
0.351164
42.5665
42.3966
42.0574
41.5707
40.9523
40.2091
39.3393
38.3346
37.1837
35.8771
34.4115
32.7945
31.046
29.1967
27.2839
25.3475
23.4273
21.5604
19.7801
18.1131
16.5768
15.1777
13.912
12.768
11.729
10.7765
9.89255
9.06114
8.26878
7.50469
6.76057
6.03022
5.30915
4.59418
3.88311
3.17448
2.46735
1.76119
1.05579
0.351284
42.6182
42.4254
42.0733
41.5794
40.9571
40.2122
39.3421
38.3379
37.1879
35.882
34.4165
32.7988
31.0488
29.1978
27.2834
25.3456
23.4242
21.5564
19.7753
18.1081
16.5721
15.1739
13.9094
12.7666
11.7286
10.7769
9.89349
9.06233
8.27004
7.5059
6.76166
6.03115
5.30992
4.5948
3.8836
3.17486
2.46763
1.76137
1.05585
0.351172
42.6527
42.4235
42.0503
41.5442
40.9141
40.163
39.2876
38.279
37.1265
35.8206
34.3587
32.7482
31.009
29.171
27.2711
25.3483
23.4413
21.5865
19.8162
18.1565
16.6245
15.2267
13.9597
12.8121
11.7682
10.8101
9.92044
9.08368
8.28656
7.51842
6.77098
6.03798
5.31484
4.5983
3.88607
3.17659
2.46886
1.76225
1.05645
0.351347
42.7651
42.4942
42.0937
41.5709
40.9313
40.1758
39.2993
38.2919
37.1411
35.8365
34.374
32.7606
31.0167
29.1734
27.2686
25.3415
23.4309
21.573
19.8005
18.1401
16.6091
15.2138
13.9501
12.8059
11.765
10.8092
9.92121
9.08543
8.28878
7.52076
6.7732
6.03996
5.31654
4.5997
3.8872
3.17748
2.46953
1.76272
1.05671
0.351297
42.9395
42.6195
42.1875
41.6457
40.9969
40.2396
39.3665
38.365
37.2199
35.9173
34.4504
32.825
31.0627
29.198
27.2716
25.324
23.3946
21.52
19.7345
18.0666
16.5346
15.1441
13.8891
12.7557
11.7256
10.7797
9.9
9.07076
8.27904
7.51456
6.76947
6.03787
5.3155
4.59931
3.88717
3.17763
2.46974
1.76291
1.0568
0.351246
43.1521
42.7811
42.3161
41.7554
41.0989
40.3428
39.4772
38.4864
37.3506
36.051
34.5765
32.9311
31.1386
29.239
27.2774
25.2965
23.336
21.4336
19.6259
17.945
16.4108
15.0276
13.7865
12.6701
11.6575
10.7276
9.86154
9.04326
8.25996
7.50172
6.76109
6.0326
5.31232
4.5975
3.88622
3.1772
2.46959
1.76289
1.05681
0.351252
43.3784
42.9591
42.4629
41.8849
41.2228
40.4709
39.6165
38.64
37.5166
36.2212
34.7372
33.0659
31.2345
29.2903
27.2845
25.2617
23.2621
21.324
19.4876
17.79
16.253
14.8792
13.6558
12.5611
11.5705
10.6608
9.81193
9.0075
8.23489
7.48461
6.74972
6.02526
5.30774
4.59476
3.88466
3.17638
2.46921
1.76275
1.0568
0.351322
43.5945
43.1331
42.6098
42.0173
41.3521
40.6064
39.7652
38.805
37.6958
36.4057
34.9116
33.2121
31.3377
29.3451
27.2918
25.2246
23.1831
21.2063
19.3382
17.622
16.0822
14.7191
13.5151
12.4438
11.477
10.589
9.75855
8.96893
8.20774
7.46598
6.73726
6.01714
5.30261
4.59162
3.88283
3.17538
2.46871
1.76255
1.05679
0.351438
43.7786
43.2838
42.7391
42.1357
41.4691
40.7304
39.9022
38.9578
37.8622
36.5775
35.0743
33.3483
31.4335
29.3958
27.2989
25.1908
23.1107
21.0978
19.1997
17.4662
15.9238
14.5708
13.3851
12.3356
11.3909
10.5229
9.70936
8.93336
8.18268
7.44874
6.72569
6.00957
5.29779
4.58866
3.88108
3.1744
2.46822
1.76236
1.05678
0.35157
43.9124
43.3945
42.8351
42.2245
41.5577
40.8248
40.007
39.0751
37.9902
36.7096
35.1994
33.453
31.5073
29.4352
27.3048
25.1654
23.0557
21.0152
19.0942
17.3471
15.8027
14.4573
13.2855
12.2528
11.325
10.4723
9.67175
8.90616
8.1635
7.43554
6.71682
6.00376
5.29408
4.58636
3.87972
3.17364
2.46784
1.76221
1.05678
0.351682
43.9828
43.4531
42.8861
42.272
41.6054
40.8758
40.0637
39.1386
38.0595
36.7812
35.2671
33.5097
31.5473
29.4566
27.3082
25.1518
23.0262
20.9707
19.0374
17.2831
15.7374
14.396
13.2317
12.2081
11.2893
10.445
9.65143
8.89146
8.15313
7.4284
6.71202
6.00061
5.29207
4.58512
3.87898
3.17323
2.46763
1.76213
1.05678
0.351746
43.9828
43.4531
42.8861
42.272
41.6054
40.8758
40.0637
39.1386
38.0595
36.7811
35.2671
33.5096
31.5473
29.4566
27.3082
25.1518
23.0262
20.9707
19.0374
17.2831
15.7374
14.396
13.2317
12.2081
11.2894
10.445
9.65142
8.89146
8.15313
7.4284
6.71201
6.0006
5.29207
4.58512
3.87898
3.17323
2.46763
1.76213
1.05678
0.351746
43.9124
43.3946
42.8351
42.2245
41.5578
40.8248
40.007
39.0751
37.9901
36.7095
35.1993
33.453
31.5073
29.4351
27.3048
25.1654
23.0558
21.0152
19.0942
17.3472
15.8028
14.4573
13.2855
12.2529
11.325
10.4723
9.67174
8.90615
8.16349
7.43553
6.71681
6.00375
5.29408
4.58636
3.87972
3.17364
2.46784
1.76221
1.05679
0.351681
43.7787
43.2839
42.7392
42.1358
41.4692
40.7304
39.9022
38.9578
37.8622
36.5774
35.0743
33.3483
31.4335
29.3959
27.2989
25.1908
23.1107
21.0978
19.1998
17.4662
15.9239
14.5708
13.385
12.3356
11.3908
10.5229
9.70933
8.93333
8.18265
7.44872
6.72567
6.00956
5.29778
4.58865
3.88108
3.1744
2.46823
1.76237
1.05679
0.351568
43.5946
43.1333
42.61
42.0175
41.3522
40.6065
39.7653
38.8052
37.6959
36.4058
34.9117
33.2122
31.3378
29.3452
27.2919
25.2246
23.1831
21.2063
19.3381
17.6219
16.0821
14.719
13.515
12.4437
11.4769
10.589
9.75848
8.96887
8.2077
7.46595
6.73723
6.01712
5.3026
4.59161
3.88283
3.17538
2.46872
1.76256
1.0568
0.351436
43.3786
42.9593
42.4631
41.8851
41.223
40.4711
39.6167
38.6403
37.5169
36.2216
34.7375
33.0662
31.2347
29.2905
27.2845
25.2617
23.262
21.3239
19.4874
17.7897
16.2527
14.879
13.6556
12.5609
11.5703
10.6607
9.81181
9.00741
8.23482
7.48456
6.74968
6.02524
5.30773
4.59474
3.88466
3.17638
2.46921
1.76276
1.05681
0.351318
43.1524
42.7813
42.3164
41.7557
41.0992
40.3431
39.4776
38.4869
37.3511
36.0516
34.577
32.9315
31.139
29.2393
27.2775
25.2965
23.3359
21.4333
19.6256
17.9447
16.4104
15.0272
13.7861
12.6698
11.6572
10.7274
9.86137
9.04313
8.25987
7.50166
6.76104
6.03257
5.3123
4.59749
3.88621
3.1772
2.46959
1.7629
1.05683
0.351247
42.9398
42.6198
42.1878
41.6461
40.9973
40.2401
39.367
38.3656
37.2206
35.918
34.451
32.8256
31.0631
29.1983
27.2717
25.324
23.3944
21.5197
19.7341
18.0661
16.5341
15.1436
13.8887
12.7553
11.7253
10.7795
9.89979
9.0706
8.27892
7.51448
6.76941
6.03783
5.31547
4.59929
3.88716
3.17762
2.46974
1.76291
1.05681
0.351241
42.7655
42.4945
42.0941
41.5713
40.9318
40.1763
39.3
38.2926
37.1419
35.8372
34.3747
32.7613
31.0172
29.1738
27.2688
25.3415
23.4307
21.5727
19.8
18.1396
16.6085
15.2133
13.9495
12.8055
11.7646
10.8089
9.92097
9.08524
8.28864
7.52066
6.77313
6.03991
5.31651
4.59968
3.88718
3.17747
2.46953
1.76273
1.05672
0.351292
42.653
42.4239
42.0507
41.5446
40.9146
40.1636
39.2882
38.2798
37.1273
35.8215
34.3595
32.7489
31.0095
29.1714
27.2713
25.3483
23.4411
21.5861
19.8157
18.1559
16.6239
15.2261
13.9591
12.8116
11.7678
10.8097
9.92018
9.08348
8.28641
7.51831
6.7709
6.03792
5.31481
4.59828
3.88605
3.17658
2.46885
1.76225
1.05646
0.351342
42.6186
42.4258
42.0737
41.5798
40.9577
40.2128
39.3428
38.3387
37.1888
35.8829
34.4173
32.7995
31.0494
29.1982
27.2836
25.3456
23.424
21.556
19.7748
18.1074
16.5714
15.1732
13.9088
12.7661
11.7282
10.7766
9.89321
9.06212
8.26989
7.50579
6.76158
6.0311
5.30988
4.59477
3.88358
3.17485
2.46762
1.76137
1.05586
0.351171
42.7402
42.5146
42.1421
41.6364
41.0092
40.2644
39.3981
38.3995
37.2547
35.9508
34.4822
32.8553
31.091
29.2228
27.2905
25.3355
23.3979
21.5156
19.7231
18.0487
16.5108
15.1154
13.8574
12.7229
11.6937
10.7501
9.87368
9.04817
8.26022
7.4993
6.75735
6.02845
5.30829
4.59387
3.88311
3.17463
2.46752
1.76128
1.0557
0.350932
42.7651
42.4941
42.0937
41.5709
40.9313
40.1758
39.2993
38.2918
37.1411
35.8364
34.3739
32.7606
31.0166
29.1734
27.2686
25.3415
23.4309
21.573
19.8005
18.1401
16.6092
15.2139
13.9501
12.806
11.765
10.8092
9.92123
9.08544
8.28879
7.52077
6.77321
6.03997
5.31654
4.59971
3.8872
3.17748
2.46953
1.76272
1.05671
0.351297
42.8674
42.5507
42.1178
41.5736
40.9205
40.1568
39.2756
38.2662
37.1154
35.8119
34.351
32.7392
30.9971
29.157
27.257
25.3361
23.4318
21.5795
19.8119
18.1558
16.6286
15.2363
13.9741
12.8301
11.788
10.8302
9.93951
9.10088
8.30148
7.53094
6.78119
6.04613
5.32122
4.60321
3.88979
3.17938
2.47091
1.7637
1.05729
0.351359
43.038
42.6677
42.1983
41.6311
40.9651
40.1963
39.3158
38.3105
37.1647
35.8637
34.3998
32.7782
31.0211
29.1649
27.2506
25.3174
23.4018
21.5392
19.7633
18.1036
16.5784
15.1923
13.9388
12.8037
11.7697
10.8184
9.93275
9.09763
8.30052
7.53136
6.78236
6.0476
5.32274
4.60463
3.89105
3.18044
2.47176
1.76432
1.05766
0.351417
43.2537
42.826
42.3187
41.7285
41.0516
40.2814
39.4066
38.411
37.2746
35.9778
34.5073
32.8658
31.0787
29.19
27.2459
25.286
23.3454
21.459
19.6636
17.9941
16.47
15.094
13.8554
12.737
11.7187
10.781
9.90637
9.07972
8.28885
7.52411
6.77813
6.04535
5.32174
4.60437
3.89118
3.18076
2.47214
1.76467
1.05792
0.351543
43.4879
43.0045
42.4608
41.8495
41.1642
40.3961
39.5313
38.55
37.4274
36.1367
34.6576
32.9885
31.1588
29.2257
27.2415
25.2459
23.271
21.3508
19.5268
17.8425
16.3199
14.9574
13.7391
12.6429
11.6458
10.7266
9.86699
9.05211
8.27007
7.51175
6.77027
6.04057
5.31899
4.60293
3.89055
3.18059
2.4722
1.76484
1.05812
0.351744
43.7141
43.1811
42.6053
41.9763
41.2854
40.522
39.6698
38.7058
37.5995
36.317
34.8291
33.1283
31.2488
29.2654
27.2376
25.2032
23.1904
21.2314
19.3729
17.6714
16.1509
14.8043
13.609
12.5376
11.5639
10.6651
9.8222
9.02039
8.24821
7.49709
6.76073
6.03457
5.31537
4.60087
3.88947
3.18011
2.47207
1.7649
1.05828
0.351992
43.9081
43.3351
42.7336
42.091
41.3969
40.6393
39.8
38.853
37.7631
36.4892
34.9935
33.2623
31.334
29.3032
27.2349
25.1648
23.1166
21.1204
19.2277
17.5095
15.9911
14.6599
13.4864
12.4386
11.4869
10.6072
9.77987
8.99027
8.22733
7.48299
6.75146
6.02867
5.31175
4.59874
3.8883
3.17954
2.47186
1.7649
1.05842
0.352241
44.0496
43.4487
42.8294
42.1775
41.482
40.7295
39.9006
38.967
37.8899
36.6224
35.1203
33.3655
31.4007
29.3337
27.2342
25.1363
23.0606
21.036
19.1176
17.3861
15.8687
14.5489
13.3921
12.3622
11.4275
10.5624
9.74711
8.96693
8.21111
7.47199
6.7442
6.02401
5.30886
4.59703
3.88735
3.17906
2.47167
1.76488
1.05852
0.352441
44.1242
43.5089
42.8805
42.224
41.5279
40.7783
39.9552
39.0289
37.9585
36.6942
35.1883
33.4209
31.4371
29.3508
27.2343
25.1213
23.0306
20.9909
19.0592
17.3204
15.8032
14.4891
13.3411
12.3209
11.3953
10.5381
9.72932
8.95424
8.20227
7.46599
6.74023
6.02145
5.30727
4.59608
3.88681
3.17879
2.47156
1.76487
1.05857
0.352554
44.1242
43.5089
42.8805
42.224
41.5279
40.7783
39.9552
39.0288
37.9584
36.6942
35.1883
33.4208
31.437
29.3507
27.2343
25.1213
23.0306
20.9909
19.0592
17.3204
15.8032
14.4892
13.3411
12.3209
11.3953
10.5381
9.72932
8.95423
8.20227
7.46599
6.74023
6.02145
5.30727
4.59608
3.88681
3.17879
2.47156
1.76487
1.05858
0.352554
44.0497
43.4487
42.8295
42.1776
41.482
40.7295
39.9006
38.9669
37.8897
36.6222
35.1201
33.3654
31.4007
29.3336
27.2342
25.1363
23.0606
21.0361
19.1177
17.3862
15.8689
14.549
13.3921
12.3622
11.4275
10.5624
9.74709
8.96691
8.21109
7.47198
6.74419
6.024
5.30885
4.59702
3.88735
3.17906
2.47167
1.76488
1.05852
0.352443
43.9082
43.3352
42.7337
42.091
41.397
40.6393
39.8
38.8529
37.763
36.4891
34.9934
33.2622
31.334
29.3032
27.2349
25.1648
23.1166
21.1205
19.2278
17.5096
15.9912
14.6599
13.4865
12.4386
11.4869
10.6071
9.77983
8.99024
8.2273
7.48297
6.75144
6.02865
5.31174
4.59873
3.8883
3.17954
2.47186
1.7649
1.05843
0.352242
43.7143
43.1812
42.6055
41.9764
41.2856
40.5221
39.67
38.7059
37.5997
36.3172
34.8292
33.1284
31.2489
29.2655
27.2376
25.2032
23.1903
21.2313
19.3728
17.6714
16.1508
14.8042
13.6089
12.5375
11.5639
10.665
9.82213
9.02032
8.24816
7.49705
6.7607
6.03455
5.31536
4.60086
3.88946
3.18011
2.47207
1.76489
1.05829
0.351994
43.4881
43.0047
42.461
41.8497
41.1645
40.3964
39.5316
38.5504
37.4278
36.1371
34.658
32.9888
31.1591
29.2258
27.2416
25.2459
23.2709
21.3506
19.5265
17.8422
16.3196
14.9572
13.7389
12.6427
11.6456
10.7264
9.86687
9.05201
8.27
7.51169
6.77022
6.04054
5.31897
4.60291
3.89053
3.18058
2.4722
1.76483
1.05813
0.351747
43.254
42.8263
42.319
41.7288
41.0519
40.2818
39.407
38.4115
37.2752
35.9784
34.5079
32.8663
31.079
29.1903
27.246
25.286
23.3453
21.4587
19.6633
17.9936
16.4696
15.0935
13.855
12.7366
11.7184
10.7808
9.9062
9.07959
8.28875
7.52404
6.77807
6.04531
5.32171
4.60435
3.89117
3.18076
2.47213
1.76466
1.05793
0.351546
43.0383
42.668
42.1987
41.6314
40.9655
40.1968
39.3164
38.3112
37.1654
35.8645
34.4006
32.7788
31.0216
29.1652
27.2507
25.3173
23.4017
21.5389
19.7628
18.1031
16.5779
15.1918
13.9383
12.8033
11.7694
10.8182
9.93254
9.09746
8.30039
7.53127
6.78229
6.04756
5.32271
4.60461
3.89103
3.18042
2.47175
1.76431
1.05767
0.351419
42.8678
42.551
42.1182
41.574
40.921
40.1573
39.2763
38.2669
37.1162
35.8128
34.3518
32.7399
30.9976
29.1573
27.2572
25.3361
23.4316
21.5792
19.8114
18.1552
16.628
15.2357
13.9736
12.8297
11.7876
10.8298
9.93926
9.10069
8.30134
7.53084
6.78112
6.04608
5.32118
4.60319
3.88978
3.17938
2.47091
1.7637
1.0573
0.35136
42.7655
42.4945
42.0941
41.5713
40.9318
40.1764
39.3
38.2926
37.1419
35.8373
34.3747
32.7613
31.0172
29.1738
27.2687
25.3415
23.4307
21.5726
19.8
18.1395
16.6085
15.2132
13.9495
12.8054
11.7646
10.8089
9.92096
9.08523
8.28864
7.52065
6.77313
6.03991
5.3165
4.59968
3.88718
3.17747
2.46952
1.76272
1.05671
0.351296
42.7406
42.515
42.1425
41.6369
41.0097
40.265
39.3988
38.4004
37.2556
35.9518
34.4831
32.8561
31.0917
29.2232
27.2908
25.3355
23.3977
21.5152
19.7225
18.048
16.51
15.1147
13.8567
12.7223
11.6932
10.7497
9.87339
9.04795
8.26006
7.49918
6.75727
6.02839
5.30826
4.59385
3.8831
3.17462
2.46752
1.76128
1.0557
0.350934
42.915
42.6504
42.2525
41.7328
41.1009
40.3592
39.5014
38.5139
37.3786
36.0783
34.6035
32.9591
31.1679
29.2676
27.3022
25.3152
23.3477
21.4386
19.6245
17.9368
16.3953
15.0055
13.7594
12.6404
11.6274
10.6989
9.83552
9.02055
8.24079
7.48597
6.74845
6.02266
5.30464
4.59165
3.88181
3.1739
2.46711
1.76101
1.05546
0.350716
42.9394
42.6195
42.1874
41.6457
40.9969
40.2395
39.3664
38.3649
37.2198
35.9171
34.4502
32.8248
31.0625
29.1979
27.2715
25.324
23.3946
21.52
19.7345
18.0667
16.5347
15.1442
13.8892
12.7558
11.7257
10.7798
9.90005
9.0708
8.27907
7.51458
6.76948
6.03788
5.31551
4.59932
3.88717
3.17763
2.46974
1.76291
1.0568
0.351246
43.038
42.6676
42.1983
41.631
40.9651
40.1963
39.3158
38.3104
37.1646
35.8636
34.3997
32.7781
31.021
29.1649
27.2505
25.3173
23.4018
21.5392
19.7633
18.1037
16.5785
15.1924
13.9388
12.8038
11.7698
10.8185
9.93279
9.09765
8.30053
7.53137
6.78236
6.04761
5.32275
4.60464
3.89105
3.18044
2.47176
1.76432
1.05766
0.351417