# vtk DataFile Version 2.0
I need something to put here
ASCII

DATASET STRUCTURED_GRID
DIMENSIONS 41 21 21
POINTS 18081 float
0.000000 0.000000 0.000000
0.100000 0.000000 0.000000
0.200000 0.000000 0.000000
0.300000 0.000000 0.000000
0.400000 0.000000 0.000000
0.500000 0.000000 0.000000
0.600000 0.000000 0.000000
0.700000 0.000000 0.000000
0.800000 0.000000 0.000000
0.900000 0.000000 0.000000
1.000000 0.000000 0.000000
1.100000 0.000000 0.000000
1.200000 0.000000 0.000000
1.300000 0.000000 0.000000
1.400000 0.000000 0.000000
1.500000 0.000000 0.000000
1.600000 0.000000 0.000000
1.700000 0.000000 0.000000
1.800000 0.000000 0.000000
1.900000 0.000000 0.000000
2.000000 0.000000 0.000000
2.100000 0.000000 0.000000
2.200000 0.000000 0.000000
2.300000 0.000000 0.000000
2.400000 0.000000 0.000000
2.500000 0.000000 0.000000
2.600000 0.000000 0.000000
2.700000 0.000000 0.000000
2.800000 0.000000 0.000000
2.900000 0.000000 0.000000
3.000000 0.000000 0.000000
3.100000 0.000000 0.000000
3.200000 0.000000 0.000000
3.300000 0.000000 0.000000
3.400000 0.000000 0.000000
3.500000 0.000000 0.000000
3.600000 0.000000 0.000000
3.700000 0.000000 0.000000
3.800000 0.000000 0.000000
3.900000 0.000000 0.000000
4.000000 0.000000 0.000000
0.000000 0.100000 0.000000
0.100000 0.100000 0.000000
0.200000 0.100000 0.000000
0.300000 0.100000 0.000000
0.400000 0.100000 0.000000
0.500000 0.100000 0.000000
0.600000 0.100000 0.000000
0.700000 0.100000 0.000000
0.800000 0.100000 0.000000
0.900000 0.100000 0.000000
1.000000 0.100000 0.000000
1.100000 0.100000 0.000000
1.200000 0.100000 0.000000
1.300000 0.100000 0.000000
1.400000 0.100000 0.000000
1.500000 0.100000 0.000000
1.600000 0.100000 0.000000
1.700000 0.100000 0.000000
1.800000 0.100000 0.000000
1.900000 0.100000 0.000000
2.000000 0.100000 0.000000
2.100000 0.100000 0.000000
2.200000 0.100000 0.000000
2.300000 0.100000 0.000000
2.400000 0.100000 0.000000
2.500000 0.100000 0.000000
2.600000 0.100000 0.000000
2.700000 0.100000 0.000000
2.800000 0.100000 0.000000
2.900000 0.100000 0.000000
3.000000 0.100000 0.000000
3.100000 0.100000 0.000000
3.200000 0.100000 0.000000
3.300000 0.100000 0.000000
3.400000 0.100000 0.000000
3.500000 0.100000 0.000000
3.600000 0.100000 0.000000
3.700000 0.100000 0.000000
3.800000 0.100000 0.000000
3.900000 0.100000 0.000000
4.000000 0.100000 0.000000
0.000000 0.200000 0.000000
0.100000 0.200000 0.000000
0.200000 0.200000 0.000000
0.300000 0.200000 0.000000
0.400000 0.200000 0.000000
0.500000 0.200000 0.000000
0.600000 0.200000 0.000000
0.700000 0.200000 0.000000
0.800000 0.200000 0.000000
0.900000 0.200000 0.000000
1.000000 0.200000 0.000000
1.100000 0.200000 0.000000
1.200000 0.200000 0.000000
1.300000 0.200000 0.000000
1.400000 0.200000 0.000000
1.500000 0.200000 0.000000
1.600000 0.200000 0.000000
1.700000 0.200000 0.000000
1.800000 0.200000 0.000000
1.900000 0.200000 0.000000
2.000000 0.200000 0.000000
2.100000 0.200000 0.000000
2.200000 0.200000 0.000000
2.300000 0.200000 0.000000
2.400000 0.200000 0.000000
2.500000 0.200000 0.000000
2.600000 0.200000 0.000000
2.700000 0.200000 0.000000
2.800000 0.200000 0.000000
2.900000 0.200000 0.000000
3.000000 0.200000 0.000000
3.100000 0.200000 0.000000
3.200000 0.200000 0.000000
3.300000 0.200000 0.000000
3.400000 0.200000 0.000000
3.500000 0.200000 0.000000
3.600000 0.200000 0.000000
3.700000 0.200000 0.000000
3.800000 0.200000 0.000000
3.900000 0.200000 0.000000
4.000000 0.200000 0.000000
0.000000 0.300000 0.000000
0.100000 0.300000 0.000000
0.200000 0.300000 0.000000
0.300000 0.300000 0.000000
0.400000 0.300000 0.000000
0.500000 0.300000 0.000000
0.600000 0.300000 0.000000
0.700000 0.300000 0.000000
0.800000 0.300000 0.000000
0.900000 0.300000 0.000000
1.000000 0.300000 0.000000
1.100000 0.300000 0.000000
1.200000 0.300000 0.000000
1.300000 0.300000 0.000000
1.400000 0.300000 0.000000
1.500000 0.300000 0.000000
1.600000 0.300000 0.000000
1.700000 0.300000 0.000000
1.800000 0.300000 0.000000
1.900000 0.300000 0.000000
2.000000 0.300000 0.000000
2.100000 0.300000 0.000000
2.200000 0.300000 0.000000
2.300000 0.300000 0.000000
2.400000 0.300000 0.000000
2.500000 0.300000 0.000000
2.600000 0.300000 0.000000
2.700000 0.300000 0.000000
2.800000 0.300000 0.000000
2.900000 0.300000 0.000000
3.000000 0.300000 0.000000
3.100000 0.300000 0.000000
3.200000 0.300000 0.000000
3.300000 0.300000 0.000000
3.400000 0.300000 0.000000
3.500000 0.300000 0.000000
3.600000 0.300000 0.000000
3.700000 0.300000 0.000000
3.800000 0.300000 0.000000
3.900000 0.300000 0.000000
4.000000 0.300000 0.000000
0.000000 0.400000 0.000000
0.100000 0.400000 0.000000
0.200000 0.400000 0.000000
0.300000 0.400000 0.000000
0.400000 0.400000 0.000000
0.500000 0.400000 0.000000
0.600000 0.400000 0.000000
0.700000 0.400000 0.000000
0.800000 0.400000 0.000000
0.900000 0.400000 0.000000
1.000000 0.400000 0.000000
1.100000 0.400000 0.000000
1.200000 0.400000 0.000000
1.300000 0.400000 0.000000
1.400000 0.400000 0.000000
1.500000 0.400000 0.000000
1.600000 0.400000 0.000000
1.700000 0.400000 0.000000
1.800000 0.400000 0.000000
1.900000 0.400000 0.000000
2.000000 0.400000 0.000000
2.100000 0.400000 0.000000
2.200000 0.400000 0.000000
2.300000 0.400000 0.000000
2.400000 0.400000 0.000000
2.500000 0.400000 0.000000
2.600000 0.400000 0.000000
2.700000 0.400000 0.000000
2.800000 0.400000 0.000000
2.900000 0.400000 0.000000
3.000000 0.400000 0.000000
3.100000 0.400000 0.000000
3.200000 0.400000 0.000000
3.300000 0.400000 0.000000
3.400000 0.400000 0.000000
3.500000 0.400000 0.000000
3.600000 0.400000 0.000000
3.700000 0.400000 0.000000
3.800000 0.400000 0.000000
3.900000 0.400000 0.000000
4.000000 0.400000 0.000000
0.000000 0.500000 0.000000
0.100000 0.500000 0.000000
0.200000 0.500000 0.000000
0.300000 0.500000 0.000000
0.400000 0.500000 0.000000
0.500000 0.500000 0.000000
0.600000 0.500000 0.000000
0.700000 0.500000 0.000000
0.800000 0.500000 0.000000
0.900000 0.500000 0.000000
1.000000 0.500000 0.000000
1.100000 0.500000 0.000000
1.200000 0.500000 0.000000
1.300000 0.500000 0.000000
1.400000 0.500000 0.000000
1.500000 0.500000 0.000000
1.600000 0.500000 0.000000
1.700000 0.500000 0.000000
1.800000 0.500000 0.000000
1.900000 0.500000 0.000000
2.000000 0.500000 0.000000
2.100000 0.500000 0.000000
2.200000 0.500000 0.000000
2.300000 0.500000 0.000000
2.400000 0.500000 0.000000
2.500000 0.500000 0.000000
2.600000 0.500000 0.000000
2.700000 0.500000 0.000000
2.800000 0.500000 0.000000
2.900000 0.500000 0.000000
3.000000 0.500000 0.000000
3.100000 0.500000 0.000000
3.200000 0.500000 0.000000
3.300000 0.500000 0.000000
3.400000 0.500000 0.000000
3.500000 0.500000 0.000000
3.600000 0.500000 0.000000
3.700000 0.500000 0.000000
3.800000 0.500000 0.000000
3.900000 0.500000 0.000000
4.000000 0.500000 0.000000
0.000000 0.600000 0.000000
0.100000 0.600000 0.000000
0.200000 0.600000 0.000000
0.300000 0.600000 0.000000
0.400000 0.600000 0.000000
0.500000 0.600000 0.000000
0.600000 0.600000 0.000000
0.700000 0.600000 0.000000
0.800000 0.600000 0.000000
0.900000 0.600000 0.000000
1.000000 0.600000 0.000000
1.100000 0.600000 0.000000
1.200000 0.600000 0.000000
1.300000 0.600000 0.000000
1.400000 0.600000 0.000000
1.500000 0.600000 0.000000
1.600000 0.600000 0.000000
1.700000 0.600000 0.000000
1.800000 0.600000 0.000000
1.900000 0.600000 0.000000
2.000000 0.600000 0.000000
2.100000 0.600000 0.000000
2.200000 0.600000 0.000000
2.300000 0.600000 0.000000
2.400000 0.600000 0.000000
2.500000 0.600000 0.000000
2.600000 0.600000 0.000000
2.700000 0.600000 0.000000
2.800000 0.600000 0.000000
2.900000 0.600000 0.000000
3.000000 0.600000 0.000000
3.100000 0.600000 0.000000
3.200000 0.600000 0.000000
3.300000 0.600000 0.000000
3.400000 0.600000 0.000000
3.500000 0.600000 0.000000
3.600000 0.600000 0.000000
3.700000 0.600000 0.000000
3.800000 0.600000 0.000000
3.900000 0.600000 0.000000
4.000000 0.600000 0.000000
0.000000 0.700000 0.000000
0.100000 0.700000 0.000000
0.200000 0.700000 0.000000
0.300000 0.700000 0.000000
0.400000 0.700000 0.000000
0.500000 0.700000 0.000000
0.600000 0.700000 0.000000
0.700000 0.700000 0.000000
0.800000 0.700000 0.000000
0.900000 0.700000 0.000000
1.000000 0.700000 0.000000
1.100000 0.700000 0.000000
1.200000 0.700000 0.000000
1.300000 0.700000 0.000000
1.400000 0.700000 0.000000
1.500000 0.700000 0.000000
1.600000 0.700000 0.000000
1.700000 0.700000 0.000000
1.800000 0.700000 0.000000
1.900000 0.700000 0.000000
2.000000 0.700000 0.000000
2.100000 0.700000 0.000000
2.200000 0.700000 0.000000
2.300000 0.700000 0.000000
2.400000 0.700000 0.000000
2.500000 0.700000 0.000000
2.600000 0.700000 0.000000
2.700000 0.700000 0.000000
2.800000 0.700000 0.000000
2.900000 0.700000 0.000000
3.000000 0.700000 0.000000
3.100000 0.700000 0.000000
3.200000 0.700000 0.000000
3.300000 0.700000 0.000000
3.400000 0.700000 0.000000
3.500000 0.700000 0.000000
3.600000 0.700000 0.000000
3.700000 0.700000 0.000000
3.800000 0.700000 0.000000
3.900000 0.700000 0.000000
4.000000 0.700000 0.000000
0.000000 0.800000 0.000000
0.100000 0.800000 0.000000
0.200000 0.800000 0.000000
0.300000 0.800000 0.000000
0.400000 0.800000 0.000000
0.500000 0.800000 0.000000
0.600000 0.800000 0.000000
0.700000 0.800000 0.000000
0.800000 0.800000 0.000000
0.900000 0.800000 0.000000
1.000000 0.800000 0.000000
1.100000 0.800000 0.000000
1.200000 0.800000 0.000000
1.300000 0.800000 0.000000
1.400000 0.800000 0.000000
1.500000 0.800000 0.000000
1.600000 0.800000 0.000000
1.700000 0.800000 0.000000
1.800000 0.800000 0.000000
1.900000 0.800000 0.000000
2.000000 0.800000 0.000000
2.100000 0.800000 0.000000
2.200000 0.800000 0.000000
2.300000 0.800000 0.000000
2.400000 0.800000 0.000000
2.500000 0.800000 0.000000
2.600000 0.800000 0.000000
2.700000 0.800000 0.000000
2.800000 0.800000 0.000000
2.900000 0.800000 0.000000
3.000000 0.800000 0.000000
3.100000 0.800000 0.000000
3.200000 0.800000 0.000000
3.300000 0.800000 0.000000
3.400000 0.800000 0.000000
3.500000 0.800000 0.000000
3.600000 0.800000 0.000000
[...]
CELL_DATA 16000
SCALARS pressure float 1
LOOKUP_TABLE default
26.9669
26.7846
26.4467
25.9949
25.4622
24.8724
24.2421
23.5826
22.9016
22.204
21.493
20.7704
20.0374
19.2949
18.5441
17.7865
17.0242
16.2596
15.4953
14.7337
13.9769
13.2261
12.4821
11.7448
11.0139
10.2885
9.56794
8.85115
8.13734
7.42578
6.71588
6.00717
5.29931
4.59201
3.8851
3.17843
2.47193
1.76554
1.05923
0.353016
27.0253
26.8158
26.4633
26.0037
25.4668
24.8746
24.2431
23.583
22.9016
22.204
21.4929
20.7704
20.0374
19.295
18.5442
17.7866
17.0242
16.2595
15.4951
14.7335
13.9766
13.2258
12.4818
11.7446
11.0137
10.2885
9.56793
8.85117
8.13738
7.42583
6.71594
6.00723
5.29935
4.59205
3.88513
3.17846
2.47195
1.76555
1.05924
0.353005
27.1454
26.8966
26.5174
26.0399
25.4911
24.8912
24.2545
23.5912
22.9078
22.209
21.4973
20.7744
20.0413
19.2985
18.5471
17.7885
17.0251
16.2592
15.4938
14.7313
13.9738
13.2228
12.4788
11.7419
11.0114
10.2866
9.56643
8.85004
8.13655
7.42524
6.71553
6.00696
5.29918
4.59194
3.88507
3.17842
2.47193
1.76554
1.05922
0.352982
27.3017
27.0086
26.5963
26.0951
25.5297
24.9184
24.274
23.6056
22.9191
22.2183
21.5056
20.7822
20.0485
19.305
18.5524
17.7921
17.0266
16.2585
15.4911
14.727
13.9685
13.2171
12.4732
11.7368
11.007
10.2829
9.56357
8.84786
8.13494
7.42409
6.71472
6.0064
5.29881
4.5917
3.88492
3.17833
2.47188
1.7655
1.05919
0.352961
27.4722
27.1357
26.6887
26.1614
25.5772
24.9525
24.299
23.6245
22.9341
22.2311
21.5172
20.7931
20.0588
19.3142
18.5598
17.7971
17.0285
16.2573
15.487
14.7206
13.9607
13.2088
12.4651
11.7294
11.0007
10.2778
9.55953
8.84479
8.13267
7.42246
6.71358
6.00562
5.29829
4.59136
3.8847
3.1782
2.4718
1.76545
1.05916
0.352945
27.6389
27.2636
26.7839
26.2311
25.6279
24.9896
24.3267
23.6458
22.9515
22.2462
21.5311
20.8064
20.0714
19.3255
18.5688
17.8028
17.0305
16.2553
15.4814
14.7124
13.9508
13.1983
12.4551
11.7204
10.9931
10.2716
9.55468
8.84112
8.12998
7.42052
6.71222
6.0047
5.29767
4.59096
3.88444
3.17804
2.4717
1.7654
1.05913
0.352936
27.7878
27.3803
26.8723
26.2969
25.6765
25.0257
24.354
23.6673
22.9693
22.2619
21.5459
20.8206
20.085
19.3376
18.5784
17.8088
17.0322
16.2527
15.4749
14.7029
13.9397
13.1868
12.4442
11.7107
10.9849
10.265
9.54958
8.83728
8.12716
7.41851
6.71082
6.00373
5.29703
4.59054
3.88418
3.17788
2.4716
1.76534
1.05911
0.352933
27.9083
27.476
26.9458
26.3522
25.7178
25.0568
24.3778
23.6864
22.9855
22.2766
21.5598
20.8342
20.0979
19.3491
18.5873
17.8141
17.0333
16.2496
15.4681
14.6934
13.9288
13.1757
12.4337
11.7016
10.9773
10.2589
9.54488
8.83376
8.12459
7.41668
6.70954
6.00286
5.29645
4.59016
3.88394
3.17773
2.47152
1.7653
1.05909
0.352933
27.9929
27.5439
26.9984
26.3922
25.748
25.0797
24.3956
23.7008
22.998
22.2881
21.5709
20.8451
20.1083
19.3582
18.5943
17.8182
17.034
16.2469
15.4624
14.6857
13.92
13.1668
12.4255
11.6944
10.9714
10.2543
9.54128
8.83108
8.12264
7.41529
6.70858
6.00221
5.29601
4.58988
3.88376
3.17762
2.47145
1.76526
1.05907
0.352935
28.0364
27.5791
27.0259
26.4132
25.7639
25.0919
24.4053
23.7088
23.0049
22.2946
21.5773
20.8514
20.1143
19.3635
18.5983
17.8205
17.0344
16.2454
15.4593
14.6813
13.9151
13.1619
12.421
11.6906
10.9682
10.2517
9.53936
8.82964
8.1216
7.41456
6.70807
6.00186
5.29578
4.58973
3.88366
3.17756
2.47142
1.76525
1.05907
0.352936
28.0367
27.5793
27.0261
26.4135
25.7642
25.0922
24.4056
23.7092
23.0054
22.2951
21.5778
20.8519
20.1148
19.364
18.5987
17.8209
17.0348
16.2457
15.4596
14.6816
13.9154
13.1621
12.4212
11.6907
10.9683
10.2518
9.53942
8.82969
8.12164
7.41459
6.70809
6.00188
5.29579
4.58974
3.88367
3.17756
2.47142
1.76525
1.05907
0.352935
27.9936
27.5446
26.9992
26.393
25.7488
25.0806
24.3966
23.702
22.9992
22.2894
21.5723
20.8465
20.1097
19.3596
18.5956
17.8194
17.0352
16.2479
15.4634
14.6865
13.9207
13.1674
12.426
11.6948
10.9717
10.2545
9.54147
8.83122
8.12275
7.41538
6.70864
6.00225
5.29604
4.5899
3.88377
3.17763
2.47146
1.76526
1.05907
0.352934
27.9096
27.4773
26.9471
26.3535
25.7192
25.0583
24.3795
23.6882
22.9875
22.2787
21.562
20.8365
20.1002
19.3514
18.5894
17.8162
17.0352
16.2513
15.4696
14.6947
13.9299
13.1766
12.4345
11.7022
10.9778
10.2593
9.54518
8.83399
8.12477
7.41681
6.70964
6.00293
5.29649
4.59019
3.88396
3.17774
2.47152
1.7653
1.05908
0.352931
27.7895
27.3819
26.8739
26.2986
25.6783
25.0276
24.3561
23.6696
22.9719
22.2647
21.5488
20.8236
20.088
19.3406
18.5812
17.8115
17.0346
16.2549
15.4768
14.7046
13.9411
13.188
12.4451
11.7115
10.9855
10.2655
9.54998
8.83758
8.12739
7.41868
6.71094
6.00382
5.29709
4.59058
3.8842
3.17789
2.47161
1.76534
1.0591
0.352931
27.6409
27.2656
26.7859
26.2332
25.6301
24.992
24.3292
23.6486
22.9545
22.2494
21.5345
20.8099
20.075
19.329
18.5722
17.806
17.0334
16.2579
15.4837
14.7143
13.9525
13.1997
12.4563
11.7214
10.9938
10.2722
9.55516
8.84149
8.13025
7.42073
6.71237
6.0048
5.29774
4.59101
3.88447
3.17805
2.47171
1.7654
1.05913
0.352933
27.4744
27.1379
26.691
26.1637
25.5796
24.9551
24.3018
23.6275
22.9374
22.2347
21.521
20.797
20.0628
19.3181
18.5636
17.8006
17.0317
16.2602
15.4895
14.7228
13.9626
13.2103
12.4664
11.7305
11.0016
10.2785
9.56006
8.8452
8.13298
7.42269
6.71374
6.00574
5.29837
4.59141
3.88473
3.17821
2.4718
1.76545
1.05915
0.352941
27.3041
27.011
26.5987
26.0975
25.5323
24.9211
24.277
23.6088
22.9225
22.222
21.5096
20.7863
20.0527
19.3091
18.5563
17.7958
17.03
16.2616
15.4938
14.7293
13.9705
13.2187
12.4746
11.7379
11.0079
10.2837
9.56412
8.84829
8.13526
7.42432
6.71489
6.00652
5.29889
4.59175
3.88494
3.17834
2.47188
1.76549
1.05918
0.352956
27.1478
26.899
26.5198
26.0424
25.4937
24.8939
24.2575
23.5944
22.9113
22.2127
21.5013
20.7786
20.0455
19.3027
18.5511
17.7923
17.0285
16.2623
15.4965
14.7336
13.9759
13.2245
12.4802
11.743
11.0123
10.2873
9.56699
8.85047
8.13687
7.42548
6.7157
6.00707
5.29925
4.59198
3.88508
3.17843
2.47193
1.76553
1.05921
0.352976
27.0277
26.8182
26.4657
26.0062
25.4693
24.8773
24.246
23.5861
22.9051
22.2076
21.4969
20.7745
20.0416
19.2992
18.5482
17.7904
17.0277
16.2626
15.4979
14.7359
13.9786
13.2275
12.4832
11.7457
11.0147
10.2892
9.56848
8.8516
8.13769
7.42606
6.71609
6.00733
5.29942
4.59208
3.88514
3.17846
2.47194
1.76554
1.05922
0.352998
26.9693
26.7869
26.449
25.9973
25.4647
24.875
24.2449
23.5857
22.9049
22.2076
21.4968
20.7744
20.0414
19.2989
18.548
17.7902
17.0276
16.2626
15.498
14.7361
13.9789
13.2278
12.4834
11.7459
11.0147
10.2892
9.56847
8.85155
8.13764
7.42599
6.71603
6.00727
5.29936
4.59204
3.8851
3.17843
2.47192
1.76552
1.05922
0.353007
27.0253
26.8158
26.4633
26.0037
25.4668
24.8746
24.2431
23.583
22.9016
22.204
21.4929
20.7704
20.0374
19.295
18.5442
17.7866
17.0242
16.2595
15.4951
14.7335
13.9766
13.2258
12.4818
11.7446
11.0137
10.2885
9.56793
8.85118
8.13738
7.42583
6.71594
6.00723
5.29935
4.59205
3.88513
3.17846
2.47195
1.76555
1.05924
0.353005
27.0756
26.8264
26.4568
25.9914
25.4536
24.8625
24.2326
23.5741
22.8941
22.1975
21.4873
20.7654
20.0331
19.2914
18.5413
17.7846
17.0231
16.2594
15.4959
14.7351
13.9788
13.2284
12.4845
11.7472
11.0161
10.2906
9.56974
8.85267
8.13858
7.42677
6.71666
6.00777
5.29975
4.59234
3.88534
3.17861
2.47206
1.76563
1.05929
0.353021
27.1954
26.8974
26.4981
26.0149
25.4667
24.8696
24.2362
23.5758
22.8948
22.1978
21.4875
20.7656
20.0335
19.2918
18.5417
17.7848
17.0231
16.2591
15.4954
14.7344
13.978
13.2276
12.4838
11.7467
11.0158
10.2904
9.56967
8.85269
8.13866
7.42688
6.71678
6.00789
5.29986
4.59244
3.88542
3.17868
2.47211
1.76567
1.05931
0.353016
27.3575
27.0057
26.5703
26.0628
25.4985
24.8907
24.2505
23.5857
22.9021
22.2035
21.4924
20.7702
20.0378
19.2957
18.5449
17.7869
17.0239
16.2585
15.4936
14.7316
13.9746
13.2239
12.4803
11.7435
11.0131
10.2883
9.56802
8.85147
8.13779
7.42629
6.71639
6.00764
5.29972
4.59236
3.88538
3.17866
2.47211
1.76567
1.05931
0.35301
27.5362
27.1321
26.6591
26.1248
25.5416
24.9209
24.2719
23.6014
22.9141
22.2134
21.5011
20.7783
20.0453
19.3024
18.5502
17.7904
17.0252
16.2575
15.4904
14.7267
13.9687
13.2178
12.4743
11.7381
11.0085
10.2845
9.56509
8.84926
8.13618
7.42515
6.7156
6.00712
5.29938
4.59215
3.88526
3.17859
2.47208
1.76566
1.05931
0.353008
27.7114
27.2605
26.7523
26.1919
25.5896
24.9554
24.297
23.6202
22.929
22.2259
21.5124
20.7888
20.0552
19.3111
18.5572
17.7948
17.0266
16.2558
15.486
14.7203
13.961
13.2097
12.4665
11.7311
11.0026
10.2797
9.56133
8.84641
8.13409
7.42365
6.71456
6.00642
5.29891
4.59185
3.88507
3.17849
2.47202
1.76563
1.05929
0.353011
27.8678
27.3781
26.8396
26.2559
25.6363
24.9895
24.3224
23.6397
22.9448
22.2394
21.5247
20.8004
20.0661
19.3208
18.5647
17.7994
17.0278
16.2537
15.4808
14.7128
13.9523
13.2006
12.4579
11.7235
10.9961
10.2745
9.55724
8.84333
8.13182
7.42203
6.71343
6.00564
5.2984
4.59152
3.88487
3.17836
2.47195
1.76559
1.05928
0.353019
27.9942
27.4748
26.9124
26.3101
25.6764
25.0193
24.3449
23.6573
22.9592
22.2521
21.5364
20.8116
20.0766
19.3301
18.5718
17.8036
17.0287
16.2512
15.4754
14.7053
13.9437
13.1918
12.4496
11.7162
10.99
10.2696
9.55344
8.84046
8.12973
7.42053
6.71238
6.00493
5.29793
4.59121
3.88467
3.17824
2.47188
1.76556
1.05927
0.353028
28.0827
27.5433
26.9646
26.3493
25.7057
25.0413
24.3617
23.6706
22.9704
22.2621
21.5458
20.8207
20.0851
19.3374
18.5774
17.8068
17.0292
16.249
15.4709
14.6991
13.9367
13.1848
12.4431
11.7105
10.9853
10.2658
9.55051
8.83827
8.12812
7.41939
6.71159
6.00439
5.29757
4.59098
3.88453
3.17815
2.47183
1.76553
1.05926
0.353036
28.1283
27.5788
26.9919
26.37
25.7213
25.0531
24.3708
23.678
22.9767
22.2678
21.5512
20.8259
20.09
19.3417
18.5806
17.8087
17.0295
16.2478
15.4684
14.6957
13.9328
13.1809
12.4396
11.7074
10.9827
10.2637
9.54895
8.8371
8.12727
7.41878
6.71116
6.0041
5.29737
4.59085
3.88445
3.17811
2.4718
1.76552
1.05926
0.35304
28.1286
27.5791
26.9922
26.3703
25.7215
25.0534
24.3711
23.6783
22.9771
22.2682
21.5517
20.8264
20.0905
19.3422
18.5811
17.8091
17.0299
16.2481
15.4687
14.696
13.9331
13.1811
12.4397
11.7075
10.9828
10.2638
9.54901
8.83715
8.12731
7.41881
6.71118
6.00411
5.29738
4.59086
3.88445
3.17811
2.4718
1.76552
1.05926
0.353039
28.0835
27.544
26.9654
26.3501
25.7065
25.0422
24.3626
23.6717
22.9715
22.2633
21.5471
20.822
20.0864
19.3387
18.5786
17.808
17.0303
16.25
15.4718
14.6999
13.9373
13.1853
12.4435
11.7109
10.9856
10.266
9.5507
8.83841
8.12823
7.41947
6.71165
6.00443
5.2976
4.591
3.88454
3.17816
2.47183
1.76553
1.05926
0.353033
27.9954
27.476
26.9137
26.3114
25.6777
25.0207
24.3464
23.6589
22.961
22.2541
21.5385
20.8137
20.0787
19.3321
18.5738
17.8054
17.0304
16.2528
15.4768
14.7065
13.9447
13.1926
12.4503
11.7168
10.9905
10.2699
9.55373
8.84069
8.1299
7.42067
6.71248
6.005
5.29798
4.59124
3.88469
3.17826
2.47188
1.76556
1.05927
0.353024
27.8694
27.3797
26.8412
26.2575
25.638
24.9914
24.3244
23.6419
22.9471
22.242
21.5274
20.8032
20.0689
19.3235
18.5673
17.8018
17.0301
16.2557
15.4826
14.7144
13.9536
13.2017
12.4588
11.7242
10.9967
10.275
9.55763
8.84363
8.13206
7.42221
6.71356
6.00574
5.29847
4.59156
3.88489
3.17838
2.47195
1.76559
1.05928
0.353014
27.7134
27.2625
26.7543
26.1939
25.5917
24.9576
24.2994
23.6228
22.9318
22.2289
21.5155
20.7921
20.0585
19.3144
18.5603
17.7977
17.0293
16.2583
15.4882
14.7222
13.9626
13.211
12.4676
11.7321
11.0033
10.2803
9.56179
8.84678
8.13437
7.42386
6.71472
6.00652
5.29899
4.5919
3.8851
3.1785
2.47202
1.76562
1.05929
0.353005
27.5385
27.1343
26.6613
26.1271
25.544
24.9234
24.2746
23.6042
22.9172
22.2167
21.5046
20.7819
20.049
19.306
18.5537
17.7937
17.0282
16.2602
15.4928
14.7288
13.9705
13.2193
12.4755
11.7392
11.0094
10.2852
9.56562
8.84967
8.13649
7.42538
6.71577
6.00724
5.29946
4.5922
3.88529
3.17861
2.47208
1.76565
1.0593
0.353001
27.3599
27.0081
26.5726
26.0652
25.5009
24.8934
24.2533
23.5887
22.9054
22.207
21.4961
20.7741
20.0417
19.2995
18.5486
17.7904
17.0271
16.2615
15.4961
14.7338
13.9765
13.2255
12.4816
11.7446
11.014
10.289
9.56857
8.85189
8.13811
7.42653
6.71656
6.00776
5.2998
4.59241
3.88541
3.17867
2.47211
1.76567
1.0593
0.353002
27.1979
26.8998
26.5005
26.0174
25.4693
24.8723
24.2391
23.5789
22.8982
22.2014
21.4913
20.7696
20.0375
19.2958
18.5456
17.7884
17.0265
16.2621
15.4981
14.7367
13.98
13.2292
12.4852
11.7478
11.0167
10.2911
9.57023
8.85312
8.13898
7.42712
6.71694
6.008
5.29993
4.59248
3.88544
3.17868
2.47211
1.76566
1.0593
0.353008
27.078
26.8288
26.4592
25.9938
25.4561
24.8652
24.2354
23.5772
22.8974
22.2011
21.4911
20.7694
20.0371
19.2954
18.5452
17.7882
17.0265
16.2624
15.4986
14.7374
13.9808
13.23
12.4858
11.7483
11.017
10.2913
9.57029
8.85309
8.13889
7.427
6.71681
6.00787
5.29982
4.59238
3.88535
3.17861
2.47205
1.76562
1.05928
0.353013
27.0277
26.8181
26.4656
26.006
25.4692
24.8772
24.2458
23.5859
22.9049
22.2074
21.4966
20.7743
20.0414
19.299
18.5481
17.7902
17.0275
16.2625
15.4977
14.7358
13.9785
13.2274
12.4831
11.7457
11.0146
10.2892
9.56845
8.85156
8.13767
7.42604
6.71607
6.00732
5.2994
4.59207
3.88513
3.17845
2.47194
1.76553
1.05922
0.352994
27.1454
26.8966
26.5174
26.0399
25.4911
24.8912
24.2545
23.5912
22.9078
22.209
21.4973
20.7744
20.0413
19.2985
18.5471
17.7885
17.0251
16.2592
15.4938
14.7313
13.9738
13.2228
12.4788
11.7419
11.0114
10.2866
9.56643
8.85004
8.13655
7.42524
6.71553
6.00696
5.29918
4.59194
3.88507
3.17842
2.47193
1.76554
1.05922
0.352982
27.1954
26.8974
26.4981
26.0149
25.4667
24.8696
24.2362
23.5758
22.8948
22.1978
21.4875
20.7656
20.0335
19.2918
18.5417
17.7848
17.0231
16.2591
15.4954
14.7344
13.978
13.2276
12.4838
11.7467
11.0158
10.2904
9.56967
8.85269
8.13866
7.42688
6.71678
6.00789
5.29986
4.59244
3.88542
3.17868
2.47211
1.76567
1.05931
0.353016
27.3155
26.9632
26.5313
26.0298
25.4717
24.8695
24.2337
23.5723
22.8911
22.1941
21.4841
20.7627
20.0311
19.2899
18.5403
17.7838
17.0225
16.2589
15.4955
14.7348
13.9788
13.2286
12.485
11.748
11.0171
10.2917
9.5708
8.85369
8.13951
7.42759
6.71735
6.00834
5.30022
4.59271
3.88563
3.17883
2.47223
1.76576
1.05936
0.353022
27.481
27.07
26.599
26.0722
25.4979
24.8856
24.2435
23.5783
22.8948
22.1967
21.4863
20.7649
20.0333
19.292
18.5421
17.7849
17.0228
16.2583
15.4941
14.7328
13.9764
13.2263
12.4829
11.7462
11.0157
10.2907
9.57014
8.85328
8.13929
7.4275
6.71735
6.00839
5.30029
4.59279
3.8857
3.1789
2.47229
1.7658
1.05939
0.353026
27.6656
27.1972
26.6859
26.131
25.5376
24.9123
24.2617
23.591
22.9042
22.2042
21.4928
20.7711
20.0393
19.2975
18.5465
17.7877
17.0236
16.2571
15.4912
14.7286
13.9714
13.2211
12.478
11.7419
11.0122
10.2879
9.56805
8.85176
8.13824
7.42679
6.71689
6.00811
5.30013
4.59271
3.88567
3.1789
2.4723
1.76582
1.05941
0.353036
27.8477
27.3277
26.7786
26.1963
25.5833
24.9445
24.2846
23.6078
22.9171
22.2149
21.5024
20.7801
20.0481
19.3055
18.5528
17.7916
17.0247
16.2554
15.4869
14.7224
13.9642
13.2137
12.4711
11.7359
11.0072
10.2839
9.56499
8.8495
8.13662
7.42567
6.71613
6.00762
5.29982
4.59252
3.88557
3.17885
2.47228
1.76582
1.05942
0.353053
28.0106
27.4477
26.866
26.2594
25.6286
24.9771
24.3084
23.6257
22.9314
22.227
21.5134
20.7908
20.0584
19.3149
18.5601
17.7959
17.0256
16.2529
15.4815
14.7148
13.9556
13.205
12.4631
11.7289
11.0014
10.2793
9.56151
8.84692
8.13476
7.42436
6.71524
6.00702
5.29944
4.59229
3.88543
3.17877
2.47225
1.76581
1.05942
0.353073
28.1425
27.5465
26.9393
26.3132
25.6679
25.0058
24.3298
23.6422
22.9449
22.2388
21.5244
20.8015
20.0688
19.3242
18.5671
17.7998
17.0261
16.2499
15.4755
14.7069
13.9468
13.1964
12.4552
11.7222
10.9959
10.275
9.5582
8.84447
8.13298
7.42311
6.71438
6.00645
5.29906
4.59205
3.88529
3.17869
2.47221
1.76579
1.05943
0.353093
28.2348
27.6167
26.9919
26.3522
25.6967
25.0272
24.346
23.655
22.9555
22.2483
21.5335
20.8105
20.0775
19.3317
18.5727
17.8027
17.026
16.2471
15.4702
14.7
13.9394
13.1893
12.4489
11.7168
10.9916
10.2716
9.55562
8.84256
8.13161
7.42215
6.71372
6.006
5.29877
4.59187
3.88518
3.17863
2.47217
1.76578
1.05943
0.353109
28.2824
27.6531
27.0194
26.3728
25.712
25.0387
24.3548
23.662
22.9616
22.2539
21.539
20.8159
20.0826
19.3361
18.5759
17.8044
17.026
16.2454
15.4671
14.6961
13.9353
13.1853
12.4454
11.7139
10.9892
10.2698
9.55423
8.84154
8.13088
7.42163
6.71337
6.00577
5.29862
4.59177
3.88512
3.17859
2.47216
1.76577
1.05943
0.353117
28.2827
27.6534
27.0197
26.3731
25.7123
25.039
24.3551
23.6624
22.962
22.2543
21.5394
20.8163
20.083
19.3366
18.5763
17.8048
17.0264
16.2457
15.4674
14.6963
13.9355
13.1855
12.4455
11.714
10.9893
10.2698
9.5543
8.84159
8.13091
7.42166
6.71339
6.00578
5.29863
4.59178
3.88512
3.1786
2.47216
1.76577
1.05943
0.353116
28.2357
27.6175
26.9927
26.353
25.6975
25.0281
24.3469
23.656
22.9566
22.2495
21.5348
20.8118
20.0787
19.333
18.5739
17.8039
17.0271
16.248
15.471
14.7008
13.9401
13.1898
12.4493
11.7172
10.9919
10.2718
9.5558
8.8427
8.13172
7.42223
6.71378
6.00605
5.2988
4.59189
3.88519
3.17864
2.47218
1.76578
1.05943
0.353105
28.1438
27.5478
26.9405
26.3144
25.6692
25.0072
24.3313
23.6439
22.9466
22.2407
21.5264
20.8035
20.0709
19.3262
18.5691
17.8016
17.0277
16.2515
15.4769
14.7081
13.9478
13.1972
12.4559
11.7227
10.9964
10.2754
9.55849
8.84469
8.13316
7.42324
6.71448
6.00652
5.29911
4.59208
3.88531
3.1787
2.47221
1.76579
1.05942
0.353088
28.0123
27.4493
26.8676
26.261
25.6303
24.9789
24.3104
23.6279
22.9337
22.2295
21.516
20.7935
20.0611
19.3176
18.5626
17.7983
17.0278
16.2549
15.4832
14.7164
13.9569
13.2061
12.464
11.7297
11.002
10.2798
9.5619
8.84722
8.13499
7.42453
6.71537
6.00712
5.2995
4.59233
3.88546
3.17879
2.47225
1.76581
1.05942
0.353066
27.8497
27.3297
26.7805
26.1983
25.5854
24.9466
24.2869
23.6103
22.9199
22.2178
21.5055
20.7834
20.0513
19.3087
18.5559
17.7945
17.0274
16.2577
15.489
14.7242
13.9658
13.215
12.4722
11.7368
11.0079
10.2845
9.56545
8.84986
8.13689
7.42587
6.71628
6.00772
5.29989
4.59257
3.8856
3.17886
2.47229
1.76582
1.05941
0.353044
27.6679
27.1994
26.6881
26.1332
25.5399
24.9148
24.2643
23.5938
22.9073
22.2075
21.4963
20.7746
20.0429
19.3011
18.5499
17.7909
17.0266
16.2598
15.4935
14.7306
13.9732
13.2226
12.4792
11.7429
11.013
10.2885
9.56856
8.85216
8.13854
7.42702
6.71706
6.00823
5.30021
4.59276
3.8857
3.17891
2.4723
1.76581
1.0594
0.353027
27.4835
27.0724
26.6014
26.0745
25.5004
24.8882
24.2463
23.5812
22.8981
22.2002
21.49
20.7687
20.0371
19.2958
18.5457
17.7884
17.026
16.2611
15.4966
14.735
13.9783
13.2278
12.4842
11.7473
11.0166
10.2914
9.57068
8.8537
8.13961
7.42774
6.71752
6.00851
5.30036
4.59283
3.88573
3.17891
2.47229
1.76579
1.05938
0.353016
27.318
26.9656
26.5337
26.0322
25.4742
24.8722
24.2366
23.5754
22.8944
22.1977
21.4879
20.7667
20.035
19.2938
18.5441
17.7874
17.0258
16.2619
15.4982
14.7371
13.9807
13.2302
12.4863
11.7491
11.018
10.2924
9.57135
8.85411
8.13983
7.42782
6.71751
6.00845
5.30029
4.59275
3.88564
3.17883
2.47222
1.76574
1.05935
0.353011
27.1979
26.8998
26.5005
26.0173
25.4692
24.8722
24.239
23.5788
22.8981
22.2013
21.4912
20.7696
20.0375
19.2958
18.5456
17.7885
17.0265
16.2622
15.4981
14.7367
13.98
13.2292
12.4852
11.7478
11.0167
10.2911
9.5702
8.85309
8.13895
7.42709
6.71692
6.00798
5.29992
4.59246
3.88543
3.17867
2.4721
1.76565
1.05929
0.353004
27.1478
26.8989
26.5197
26.0422
25.4934
24.8936
24.2572
23.594
22.911
22.2124
21.501
20.7783
20.0453
19.3025
18.5509
17.7922
17.0284
16.2622
15.4964
14.7335
13.9757
13.2244
12.4801
11.7429
11.0122
10.2872
9.56692
8.8504
8.13681
7.42543
6.71565
6.00703
5.29922
4.59195
3.88506
3.17841
2.47191
1.76551
1.05919
0.352966
27.3017
27.0086
26.5963
26.0951
25.5297
24.9184
24.274
23.6056
22.9191
22.2183
21.5056
20.7822
20.0485
19.305
18.5524
17.7921
17.0266
16.2585
15.4911
14.727
13.9685
13.2171
12.4732
11.7368
11.007
10.2829
9.56357
8.84786
8.13494
7.42409
6.71472
6.00641
5.29881
4.5917
3.88492
3.17833
2.47188
1.7655
1.05919
0.352961
27.3575
27.0057
26.5703
26.0628
25.4985
24.8907
24.2505
23.5857
22.9021
22.2035
21.4924
20.7702
20.0378
19.2957
18.5449
17.7869
17.0239
16.2585
15.4936
14.7316
13.9746
13.2239
12.4803
11.7435
11.0131
10.2883
9.56802
8.85147
8.13779
7.42629
6.71639
6.00764
5.29972
4.59236
3.88538
3.17866
2.47211
1.76567
1.05931
0.35301
27.481
27.07
26.599
26.0722
25.4979
24.8856
24.2435
23.5783
22.8948
22.1967
21.4863
20.7649
20.0333
19.292
18.5421
17.7849
17.0228
16.2583
15.4941
14.7328
13.9764
13.2263
12.4829
11.7462
11.0157
10.2907
9.57014
8.85328
8.13929
7.4275
6.71735
6.00839
5.30029
4.59279