# vtk DataFile Version 2.0
I need something to put here
ASCII

DATASET STRUCTURED_GRID
DIMENSIONS 41 21 21
POINTS 18081 float
0.000000 0.000000 0.000000
0.100000 0.000000 0.000000
0.200000 0.000000 0.000000
0.300000 0.000000 0.000000
0.400000 0.000000 0.000000
0.500000 0.000000 0.000000
0.600000 0.000000 0.000000
0.700000 0.000000 0.000000
0.800000 0.000000 0.000000
0.900000 0.000000 0.000000
1.000000 0.000000 0.000000
1.100000 0.000000 0.000000
1.200000 0.000000 0.000000
1.300000 0.000000 0.000000
1.400000 0.000000 0.000000
1.500000 0.000000 0.000000
1.600000 0.000000 0.000000
1.700000 0.000000 0.000000
1.800000 0.000000 0.000000
1.900000 0.000000 0.000000
2.000000 0.000000 0.000000
2.100000 0.000000 0.000000
2.200000 0.000000 0.000000
2.300000 0.000000 0.000000
2.400000 0.000000 0.000000
2.500000 0.000000 0.000000
2.600000 0.000000 0.000000
2.700000 0.000000 0.000000
2.800000 0.000000 0.000000
2.900000 0.000000 0.000000
3.000000 0.000000 0.000000
3.100000 0.000000 0.000000
3.200000 0.000000 0.000000
3.300000 0.000000 0.000000
3.400000 0.000000 0.000000
3.500000 0.000000 0.000000
3.600000 0.000000 0.000000
3.700000 0.000000 0.000000
3.800000 0.000000 0.000000
3.900000 0.000000 0.000000
4.000000 0.000000 0.000000
0.000000 0.100000 0.000000
0.100000 0.100000 0.000000
0.200000 0.100000 0.000000
0.300000 0.100000 0.000000
0.400000 0.100000 0.000000
0.500000 0.100000 0.000000
0.600000 0.100000 0.000000
0.700000 0.100000 0.000000
0.800000 0.100000 0.000000
0.900000 0.100000 0.000000
1.000000 0.100000 0.000000
1.100000 0.100000 0.000000
1.200000 0.100000 0.000000
1.300000 0.100000 0.000000
1.400000 0.100000 0.000000
1.500000 0.100000 0.000000
1.600000 0.100000 0.000000
1.700000 0.100000 0.000000
1.800000 0.100000 0.000000
1.900000 0.100000 0.000000
2.000000 0.100000 0.000000
2.100000 0.100000 0.000000
2.200000 0.100000 0.000000
2.300000 0.100000 0.000000
2.400000 0.100000 0.000000
2.500000 0.100000 0.000000
2.600000 0.100000 0.000000
2.700000 0.100000 0.000000
2.800000 0.100000 0.000000
2.900000 0.100000 0.000000
3.000000 0.100000 0.000000
3.100000 0.100000 0.000000
3.200000 0.100000 0.000000
3.300000 0.100000 0.000000
3.400000 0.100000 0.000000
3.500000 0.100000 0.000000
3.600000 0.100000 0.000000
3.700000 0.100000 0.000000
3.800000 0.100000 0.000000
3.900000 0.100000 0.000000
4.000000 0.100000 0.000000
0.000000 0.200000 0.000000
0.100000 0.200000 0.000000
0.200000 0.200000 0.000000
0.300000 0.200000 0.000000
0.400000 0.200000 0.000000
0.500000 0.200000 0.000000
0.600000 0.200000 0.000000
0.700000 0.200000 0.000000
0.800000 0.200000 0.000000
0.900000 0.200000 0.000000
1.000000 0.200000 0.000000
1.100000 0.200000 0.000000
1.200000 0.200000 0.000000
1.300000 0.200000 0.000000
1.400000 0.200000 0.000000
1.500000 0.200000 0.000000
1.600000 0.200000 0.000000
1.700000 0.200000 0.000000
1.800000 0.200000 0.000000
1.900000 0.200000 0.000000
2.000000 0.200000 0.000000
2.100000 0.200000 0.000000
2.200000 0.200000 0.000000
2.300000 0.200000 0.000000
2.400000 0.200000 0.000000
2.500000 0.200000 0.000000
2.600000 0.200000 0.000000
2.700000 0.200000 0.000000
2.800000 0.200000 0.000000
2.900000 0.200000 0.000000
3.000000 0.200000 0.000000
3.100000 0.200000 0.000000
3.200000 0.200000 0.000000
3.300000 0.200000 0.000000
3.400000 0.200000 0.000000
3.500000 0.200000 0.000000
3.600000 0.200000 0.000000
3.700000 0.200000 0.000000
3.800000 0.200000 0.000000
3.900000 0.200000 0.000000
4.000000 0.200000 0.000000
0.000000 0.300000 0.000000
0.100000 0.300000 0.000000
0.200000 0.300000 0.000000
0.300000 0.300000 0.000000
0.400000 0.300000 0.000000
0.500000 0.300000 0.000000
0.600000 0.300000 0.000000
0.700000 0.300000 0.000000
0.800000 0.300000 0.000000
0.900000 0.300000 0.000000
1.000000 0.300000 0.000000
1.100000 0.300000 0.000000
1.200000 0.300000 0.000000
1.300000 0.300000 0.000000
1.400000 0.300000 0.000000
1.500000 0.300000 0.000000
1.600000 0.300000 0.000000
1.700000 0.300000 0.000000
1.800000 0.300000 0.000000
1.900000 0.300000 0.000000
2.000000 0.300000 0.000000
2.100000 0.300000 0.000000
2.200000 0.300000 0.000000
2.300000 0.300000 0.000000
2.400000 0.300000 0.000000
2.500000 0.300000 0.000000
2.600000 0.300000 0.000000
2.700000 0.300000 0.000000
2.800000 0.300000 0.000000
2.900000 0.300000 0.000000
3.000000 0.300000 0.000000
3.100000 0.300000 0.000000
3.200000 0.300000 0.000000
3.300000 0.300000 0.000000
3.400000 0.300000 0.000000
3.500000 0.300000 0.000000
3.600000 0.300000 0.000000
3.700000 0.300000 0.000000
3.800000 0.300000 0.000000
3.900000 0.300000 0.000000
4.000000 0.300000 0.000000
0.000000 0.400000 0.000000
0.100000 0.400000 0.000000
0.200000 0.400000 0.000000
0.300000 0.400000 0.000000
0.400000 0.400000 0.000000
0.500000 0.400000 0.000000
0.600000 0.400000 0.000000
0.700000 0.400000 0.000000
0.800000 0.400000 0.000000
0.900000 0.400000 0.000000
1.000000 0.400000 0.000000
1.100000 0.400000 0.000000
1.200000 0.400000 0.000000
1.300000 0.400000 0.000000
1.400000 0.400000 0.000000
1.500000 0.400000 0.000000
1.600000 0.400000 0.000000
1.700000 0.400000 0.000000
1.800000 0.400000 0.000000
1.900000 0.400000 0.000000
2.000000 0.400000 0.000000
2.100000 0.400000 0.000000
2.200000 0.400000 0.000000
2.300000 0.400000 0.000000
2.400000 0.400000 0.000000
2.500000 0.400000 0.000000
2.600000 0.400000 0.000000
2.700000 0.400000 0.000000
2.800000 0.400000 0.000000
2.900000 0.400000 0.000000
3.000000 0.400000 0.000000
3.100000 0.400000 0.000000
3.200000 0.400000 0.000000
3.300000 0.400000 0.000000
3.400000 0.400000 0.000000
3.500000 0.400000 0.000000
3.600000 0.400000 0.000000
3.700000 0.400000 0.000000
3.800000 0.400000 0.000000
3.900000 0.400000 0.000000
4.000000 0.400000 0.000000
0.000000 0.500000 0.000000
0.100000 0.500000 0.000000
0.200000 0.500000 0.000000
0.300000 0.500000 0.000000
0.400000 0.500000 0.000000
0.500000 0.500000 0.000000
0.600000 0.500000 0.000000
0.700000 0.500000 0.000000
0.800000 0.500000 0.000000
0.900000 0.500000 0.000000
1.000000 0.500000 0.000000
1.100000 0.500000 0.000000
1.200000 0.500000 0.000000
1.300000 0.500000 0.000000
1.400000 0.500000 0.000000
1.500000 0.500000 0.000000
1.600000 0.500000 0.000000
1.700000 0.500000 0.000000
1.800000 0.500000 0.000000
1.900000 0.500000 0.000000
2.000000 0.500000 0.000000
2.100000 0.500000 0.000000
2.200000 0.500000 0.000000
2.300000 0.500000 0.000000
2.400000 0.500000 0.000000
2.500000 0.500000 0.000000
2.600000 0.500000 0.000000
2.700000 0.500000 0.000000
2.800000 0.500000 0.000000
2.900000 0.500000 0.000000
3.000000 0.500000 0.000000
3.100000 0.500000 0.000000
3.200000 0.500000 0.000000
3.300000 0.500000 0.000000
3.400000 0.500000 0.000000
3.500000 0.500000 0.000000
3.600000 0.500000 0.000000
3.700000 0.500000 0.000000
3.800000 0.500000 0.000000
3.900000 0.500000 0.000000
4.000000 0.500000 0.000000
0.000000 0.600000 0.000000
0.100000 0.600000 0.000000
0.200000 0.600000 0.000000
0.300000 0.600000 0.000000
0.400000 0.600000 0.000000
0.500000 0.600000 0.000000
0.600000 0.600000 0.000000
0.700000 0.600000 0.000000
0.800000 0.600000 0.000000
0.900000 0.600000 0.000000
1.000000 0.600000 0.000000
1.100000 0.600000 0.000000
1.200000 0.600000 0.000000
1.300000 0.600000 0.000000
1.400000 0.600000 0.000000
1.500000 0.600000 0.000000
1.600000 0.600000 0.000000
1.700000 0.600000 0.000000
1.800000 0.600000 0.000000
1.900000 0.600000 0.000000
2.000000 0.600000 0.000000
2.100000 0.600000 0.000000
2.200000 0.600000 0.000000
2.300000 0.600000 0.000000
2.400000 0.600000 0.000000
2.500000 0.600000 0.000000
2.600000 0.600000 0.000000
2.700000 0.600000 0.000000
2.800000 0.600000 0.000000
2.900000 0.600000 0.000000
3.000000 0.600000 0.000000
3.100000 0.600000 0.000000
3.200000 0.600000 0.000000
3.300000 0.600000 0.000000
3.400000 0.600000 0.000000
3.500000 0.600000 0.000000
3.600000 0.600000 0.000000
3.700000 0.600000 0.000000
3.800000 0.600000 0.000000
3.900000 0.600000 0.000000
4.000000 0.600000 0.000000
0.000000 0.700000 0.000000
0.100000 0.700000 0.000000
0.200000 0.700000 0.000000
0.300000 0.700000 0.000000
0.400000 0.700000 0.000000
0.500000 0.700000 0.000000
0.600000 0.700000 0.000000
0.700000 0.700000 0.000000
0.800000 0.700000 0.000000
0.900000 0.700000 0.000000
1.000000 0.700000 0.000000
1.100000 0.700000 0.000000
1.200000 0.700000 0.000000
1.300000 0.700000 0.000000
1.400000 0.700000 0.000000
1.500000 0.700000 0.000000
1.600000 0.700000 0.000000
1.700000 0.700000 0.000000
1.800000 0.700000 0.000000
1.900000 0.700000 0.000000
2.000000 0.700000 0.000000
2.100000 0.700000 0.000000
2.200000 0.700000 0.000000
2.300000 0.700000 0.000000
2.400000 0.700000 0.000000
2.500000 0.700000 0.000000
2.600000 0.700000 0.000000
2.700000 0.700000 0.000000
2.800000 0.700000 0.000000
2.900000 0.700000 0.000000
3.000000 0.700000 0.000000
3.100000 0.700000 0.000000
3.200000 0.700000 0.000000
3.300000 0.700000 0.000000
3.400000 0.700000 0.000000
3.500000 0.700000 0.000000
3.600000 0.700000 0.000000
3.700000 0.700000 0.000000
3.800000 0.700000 0.000000
3.900000 0.700000 0.000000
4.000000 0.700000 0.000000
0.000000 0.800000 0.000000
0.100000 0.800000 0.000000
0.200000 0.800000 0.000000
0.300000 0.800000 0.000000
0.400000 0.800000 0.000000
0.500000 0.800000 0.000000
0.600000 0.800000 0.000000
0.700000 0.800000 0.000000
0.800000 0.800000 0.000000
0.900000 0.800000 0.000000
1.000000 0.800000 0.000000
1.100000 0.800000 0.000000
1.200000 0.800000 0.000000
1.300000 0.800000 0.000000
1.400000 0.800000 0.000000
1.500000 0.800000 0.000000
1.600000 0.800000 0.000000
1.700000 0.800000 0.000000
1.800000 0.800000 0.000000
1.900000 0.800000 0.000000
2.000000 0.800000 0.000000
2.100000 0.800000 0.000000
2.200000 0.800000 0.000000
2.300000 0.800000 0.000000
2.400000 0.800000 0.000000
2.500000 0.800000 0.000000
2.600000 0.800000 0.000000
2.700000 0.800000 0.000000
2.800000 0.800000 0.000000
2.900000 0.800000 0.000000
3.000000 0.800000 0.000000
3.100000 0.800000 0.000000
3.200000 0.800000 0.000000
3.300000 0.800000 0.000000
3.400000 0.800000 0.000000
3.500000 0.800000 0.000000
3.600000 0.800000 0.000000
[...]
CELL_DATA 16000
SCALARS pressure float 1
LOOKUP_TABLE default
29.4718
29.2914
28.9535
28.4969
27.952
27.3401
26.6749
25.9648
25.2146
24.4265
23.6022
22.7437
21.8542
20.9384
20.003
19.0559
18.1055
17.1606
16.2292
15.3178
14.431
13.5711
12.7382
11.9307
11.1458
10.38
9.62988
8.89199
8.16346
7.44186
6.72529
6.01227
5.3017
4.59278
3.88495
3.17781
2.47113
1.76473
1.05858
0.352679
29.5292
29.3223
28.9701
28.5057
27.9566
27.3424
26.6761
25.9656
25.2152
24.4272
23.603
22.7445
21.8549
20.939
20.0033
19.0558
18.1051
17.1599
16.2282
15.3167
14.4299
13.5702
12.7375
11.9302
11.1456
10.38
9.62997
8.89216
8.16366
7.44208
6.7255
6.01246
5.30186
4.59291
3.88506
3.1779
2.47119
1.76478
1.05859
0.352647
29.6495
29.4042
29.0263
28.545
27.985
27.3642
26.6941
25.9817
25.2306
24.4421
23.6173
22.7576
21.866
20.9472
20.0081
19.0567
18.1022
17.1535
16.219
15.3056
14.418
13.5584
12.7266
11.9208
11.1378
10.3738
9.62526
8.88869
8.16118
7.44036
6.72434
6.0117
5.30139
4.59263
3.88489
3.17781
2.47114
1.76474
1.05854
0.352579
29.8084
29.5197
29.1098
28.6062
28.0314
27.4014
26.7261
26.0112
25.2591
24.4702
23.6443
22.7822
21.8866
20.9624
20.0167
19.0582
18.0964
17.1412
16.2014
15.2845
14.3953
13.536
12.7061
11.903
11.123
10.3621
9.61622
8.88196
8.15632
7.43693
6.72199
6.01013
5.30036
4.59198
3.88449
3.17757
2.471
1.76465
1.05846
0.352516
29.9844
29.6527
29.2093
28.6815
28.0902
27.4499
26.769
26.0517
25.2989
24.5096
23.6824
22.8171
21.9158
20.9837
20.0284
19.0596
18.0875
17.1229
16.1756
15.2538
14.3626
13.504
12.6768
11.8776
11.1021
10.3455
9.60352
8.87251
8.14947
7.4321
6.71865
6.00788
5.29888
4.59103
3.88391
3.17722
2.47079
1.76452
1.05838
0.352472
30.1588
29.7886
29.3137
28.7623
28.1549
27.5046
26.8185
26.0994
25.3466
24.5574
23.7289
22.8596
21.9513
21.0094
20.0423
19.0606
18.0758
17.0997
16.1433
15.2155
14.3221
13.4647
12.6411
11.8469
11.0769
10.3256
9.58833
8.86125
8.14133
7.42636
6.7147
6.00521
5.29713
4.58991
3.8832
3.17679
2.47054
1.76438
1.05831
0.352447
30.3166
29.9143
29.412
28.8399
28.2183
27.5593
26.8691
26.1491
25.397
24.6086
23.779
22.9056
21.9897
21.037
20.057
19.0612
18.0625
17.0738
16.1074
15.1734
14.278
13.4221
12.6027
11.8142
11.0502
10.3046
9.5724
8.84948
8.13286
7.42039
6.71059
6.00245
5.29531
4.58874
3.88247
3.17635
2.47029
1.76424
1.05824
0.35244
30.4457
30.0186
29.495
28.9065
28.2735
27.6079
26.9148
26.1946
25.4439
24.6566
23.8264
22.9493
22.0261
21.063
20.0705
19.0613
18.0492
17.0486
16.0728
15.1331
14.2359
13.3818
12.5667
11.7837
11.0255
10.2853
9.55782
8.83875
8.12515
7.41498
6.70687
5.99995
5.29366
4.58768
3.88181
3.17595
2.47006
1.76412
1.05819
0.352442
30.5369
30.0932
29.5549
28.9551
28.3144
27.6442
26.9494
26.2296
25.4803
24.6943
23.8639
22.9839
22.0549
21.0836
20.0811
19.0611
18.0385
17.0284
16.0451
15.101
14.2026
13.3502
12.5386
11.76
11.0064
10.2705
9.54666
8.83056
8.11929
7.41087
6.70405
5.99805
5.29242
4.58688
3.88131
3.17565
2.46989
1.76403
1.05816
0.352449
30.5842
30.1321
29.5864
28.9808
28.3362
27.6638
26.9683
26.2488
25.5004
24.7152
23.8848
23.0034
22.0711
21.0951
20.0871
19.0611
18.0326
17.0171
16.0298
15.0832
14.1843
13.3329
12.5232
11.7471
10.9961
10.2625
9.54063
8.82615
8.11613
7.40866
6.70254
5.99704
5.29175
4.58645
3.88105
3.17549
2.46979
1.76398
1.05814
0.352453
30.5845
30.1324
29.5867
28.9811
28.3365
27.6642
26.9687
26.2492
25.5009
24.7157
23.8853
23.0039
22.0717
21.0956
20.0875
19.0615
18.0329
17.0175
16.0301
15.0835
14.1845
13.333
12.5234
11.7472
10.9961
10.2626
9.54067
8.82618
8.11615
7.40868
6.70255
5.99704
5.29175
4.58645
3.88105
3.17549
2.46979
1.76398
1.05814
0.352453
30.5378
30.094
29.5558
28.956
28.3153
27.6452
26.9505
26.2308
25.4816
24.6957
23.8653
22.9855
22.0564
21.085
20.0824
19.0624
18.0396
17.0294
16.046
15.1017
14.2033
13.3507
12.539
11.7603
11.0066
10.2707
9.54678
8.83065
8.11935
7.41092
6.70408
5.99807
5.29243
4.58689
3.88132
3.17565
2.46988
1.76403
1.05816
0.352448
30.447
30.02
29.4964
28.9079
28.275
27.6095
26.9165
26.1965
25.446
24.6588
23.8288
22.9517
22.0284
21.0653
20.0726
19.0632
18.051
17.0502
16.0741
15.1342
14.2368
13.3826
12.5673
11.7841
11.0258
10.2856
9.55801
8.83889
8.12525
7.41505
6.70692
5.99998
5.29368
4.58769
3.88181
3.17595
2.47005
1.76411
1.05819
0.352441
30.3184
29.9161
29.4138
28.8418
28.2203
27.5615
26.8715
26.1516
25.3998
24.6115
23.7821
22.9088
21.9928
21.0399
20.0597
19.0637
18.0647
17.0758
16.1091
15.1748
14.2791
13.423
12.6034
11.8147
11.0506
10.305
9.57265
8.84966
8.13299
7.42048
6.71065
6.00248
5.29533
4.58875
3.88247
3.17635
2.47028
1.76423
1.05824
0.352438
30.161
29.7908
29.3158
28.7645
28.1572
27.5071
26.8212
26.1024
25.3498
24.5609
23.7325
22.8633
21.955
21.0129
20.0456
19.0636
18.0784
17.102
16.1452
15.2171
14.3234
13.4657
12.6419
11.8476
11.0774
10.326
9.58861
8.86145
8.14148
7.42646
6.71476
6.00525
5.29715
4.58991
3.8832
3.17679
2.47053
1.76437
1.0583
0.352446
29.9868
29.6552
29.2118
28.684
28.0929
27.4527
26.772
26.055
25.3025
24.5134
23.6864
22.8211
21.9198
20.9875
20.032
19.0628
18.0903
17.1253
16.1777
15.2555
14.364
13.5051
12.6777
11.8783
11.1026
10.3459
9.60381
8.87273
8.14963
7.4322
6.71872
6.00792
5.2989
4.59104
3.8839
3.17721
2.47078
1.76451
1.05837
0.35247
29.811
29.5222
29.1124
28.6089
28.0342
27.4043
26.7293
26.0147
25.2628
24.4741
23.6484
22.7864
21.8908
20.9664
20.0204
19.0615
18.0993
17.1437
16.2035
15.2862
14.3967
13.5372
12.707
11.9037
11.1235
10.3625
9.61653
8.88218
8.15647
7.43703
6.72205
6.01016
5.30037
4.59198
3.88449
3.17756
2.47099
1.76463
1.05845
0.352513
29.6521
29.4068
29.0289
28.5477
27.9878
27.3672
26.6974
25.9852
25.2343
24.4461
23.6215
22.7619
21.8702
20.9513
20.0119
19.0602
18.1052
17.1561
16.2212
15.3074
14.4194
13.5595
12.7275
11.9215
11.1383
10.3742
9.62556
8.8889
8.16133
7.44046
6.7244
6.01174
5.3014
4.59263
3.88488
3.1778
2.47113
1.76472
1.05853
0.352575
29.5318
29.3249
28.9727
28.5084
27.9594
27.3454
26.6793
25.969
25.2189
24.4311
23.6071
22.7487
21.8591
20.943
20.0071
19.0592
18.1081
17.1624
16.2304
15.3185
14.4314
13.5713
12.7384
11.9309
11.1461
10.3804
9.63026
8.89237
8.16381
7.44217
6.72556
6.01249
5.30187
4.59291
3.88504
3.17788
2.47117
1.76476
1.05858
0.352641
29.4744
29.294
28.9561
28.4996
27.9547
27.3429
26.678
25.9682
25.2181
24.4303
23.6062
22.7478
21.8582
20.9424
20.0067
19.0592
18.1084
17.1631
16.2313
15.3195
14.4324
13.5722
12.7391
11.9314
11.1463
10.3804
9.63017
8.89219
8.16359
7.44195
6.72534
6.01229
5.3017
4.59277
3.88493
3.17779
2.4711
1.76471
1.05856
0.352672
29.5292
29.3223
28.9701
28.5057
27.9566
27.3424
26.6761
25.9656
25.2152
24.4272
23.603
22.7445
21.8549
20.939
20.0033
19.0558
18.1051
17.1599
16.2283
15.3167
14.43
13.5702
12.7375
11.9302
11.1456
10.38
9.62997
8.89216
8.16366
7.44208
6.7255
6.01246
5.30186
4.59291
3.88506
3.1779
2.47119
1.76478
1.05859
0.352647
29.5771
29.331
28.9611
28.49
27.9389
27.3246
26.6588
25.9489
25.1991
24.4118
23.5887
22.7317
21.8442
20.9309
19.9983
19.0541
18.1067
17.1645
16.2355
15.3259
14.4402
13.5809
12.7479
11.9399
11.1542
10.3874
9.63608
8.89709
8.16755
7.44508
6.72777
6.01415
5.3031
4.59381
3.88569
3.17835
2.47152
1.76501
1.05875
0.352694
29.6957
29.4018
29.0026
28.5138
27.9524
27.3323
26.6633
25.9519
25.2016
24.4142
23.5911
22.734
21.8462
20.9323
19.9989
19.0537
18.1054
17.1624
16.2328
15.3229
14.4374
13.5783
12.7459
11.9385
11.1533
10.387
9.6361
8.89736
8.16795
7.44554
6.72823
6.01457
5.30347
4.59412
3.88595
3.17856
2.47168
1.76513
1.05882
0.352678
29.8594
29.5125
29.0778
28.5656
27.9891
27.3596
26.6853
25.9711
25.2196
24.4316
23.6077
22.7492
21.8588
20.9414
20.0038
19.0541
18.1011
17.1541
16.2212
15.3093
14.4229
13.5643
12.7332
11.9277
11.1445
10.3802
9.63101
8.89371
8.16543
7.44387
6.72717
6.01394
5.30312
4.59395
3.88589
3.17856
2.4717
1.76516
1.05883
0.352661
30.0431
29.6441
29.1725
28.6346
28.0409
27.4006
26.7201
26.0028
25.25
24.4612
23.636
22.7748
21.88
20.9567
20.012
19.0546
18.094
17.1401
16.2017
15.2863
14.3986
13.5406
12.7116
11.9091
11.1293
10.3682
9.62187
8.88698
8.16063
7.44053
6.72492
6.01247
5.30219
4.59339
3.88557
3.17839
2.47163
1.76512
1.05881
0.352657
30.2259
29.7799
29.2737
28.711
28.1003
27.4492
26.7625
26.0424
25.2885
24.4992
23.6725
22.8079
21.9075
20.9764
20.0224
19.0549
18.0844
17.1216
16.1762
15.2562
14.3669
13.5099
12.6838
11.8852
11.1097
10.3527
9.61005
8.87823
8.15433
7.43612
6.7219
6.01046
5.3009
4.59258
3.88509
3.17812
2.47148
1.76505
1.05879
0.35267
30.3912
29.9059
29.37
28.7853
28.1595
27.4988
26.8069
26.0846
25.3303
24.5408
23.7127
22.8445
21.9377
20.9979
20.0335
19.0549
18.0734
17.1007
16.1475
15.2227
14.3318
13.4761
12.6533
11.8591
11.0883
10.3359
9.59725
8.86875
8.1475
7.43131
6.71861
6.00825
5.29945
4.59167
3.88453
3.17779
2.4713
1.76497
1.05877
0.352695
30.5264
30.0108
29.4514
28.8493
28.2114
27.5431
26.8473
26.1236
25.3694
24.5801
23.7511
22.8796
21.9667
21.0185
20.044
19.0545
18.0624
17.0803
16.1196
15.1903
14.2982
13.4439
12.6244
11.8346
11.0684
10.3202
9.58535
8.85996
8.14116
7.42685
6.71554
6.00619
5.29811
4.59081
3.884
3.17748
2.47113
1.76489
1.05875
0.352724
30.6218
30.0857
29.5103
28.8962
28.2499
27.5764
26.878
26.1537
25.3999
24.6111
23.7816
22.9075
21.9898
21.0348
20.0522
19.0541
18.0535
17.0638
16.0973
15.1645
14.2715
13.4186
12.6019
11.8155
11.0529
10.3082
9.5762
8.85321
8.1363
7.42344
6.71319
6.00461
5.29707
4.59015
3.88359
3.17724
2.471
1.76483
1.05873
0.35275
30.6712
30.1248
29.5412
28.921
28.2705
27.5944
26.8948
26.1703
25.4169
24.6284
23.7986
22.9232
22.0028
21.044
20.0569
19.054
18.0487
17.0547
16.0849
15.1503
14.2568
13.4047
12.5896
11.8051
11.0445
10.3016
9.57124
8.84956
8.13368
7.42159
6.71192
6.00376
5.29651
4.58979
3.88337
3.17711
2.47092
1.76479
1.05873
0.352764
30.6715
30.1251
29.5415
28.9213
28.2708
27.5947
26.8951
26.1707
25.4173
24.6289
23.7991
22.9237
22.0033
21.0444
20.0573
19.0544
18.049
17.055
16.0852
15.1505
14.257
13.4048
12.5897
11.8052
11.0446
10.3017
9.57129
8.84959
8.1337
7.4216
6.71193
6.00377
5.29651
4.58979
3.88337
3.17711
2.47092
1.76479
1.05872
0.352764
30.6227
30.0866
29.5111
28.897
28.2508
27.5774
26.879
26.1548
25.4012
24.6124
23.7829
22.9089
21.9911
21.036
20.0534
19.0552
18.0546
17.0647
16.0981
15.1652
14.2721
13.419
12.6022
11.8158
11.0531
10.3083
9.57632
8.8533
8.13637
7.42348
6.71322
6.00463
5.29708
4.59016
3.88359
3.17724
2.47099
1.76482
1.05873
0.352748
30.5277
30.0121
29.4527
28.8507
28.2128
27.5447
26.8489
26.1254
25.3714
24.5822
23.7533
22.8817
21.9689
21.0205
20.0459
19.0563
18.064
17.0817
16.1208
15.1914
14.299
13.4446
12.625
11.835
11.0687
10.3205
9.58554
8.8601
8.14126
7.42692
6.71559
6.00622
5.29812
4.59082
3.884
3.17748
2.47113
1.76488
1.05874
0.352721
30.3931
29.9077
29.3717
28.7872
28.1614
27.5008
26.8091
26.087
25.3329
24.5435
23.7155
22.8474
21.9406
21.0006
20.036
19.0572
18.0754
17.1025
16.149
15.224
14.3329
13.4769
12.654
11.8596
11.0887
10.3362
9.59749
8.86893
8.14762
7.4314
6.71867
6.00829
5.29948
4.59168
3.88453
3.17779
2.47129
1.76496
1.05876
0.352691
30.2281
29.782
29.2759
28.7132
28.1026
27.4516
26.7651
26.0452
25.2916
24.5024
23.6758
22.8113
21.9108
20.9796
20.0254
19.0576
18.0868
17.1237
16.178
15.2577
14.3682
13.5109
12.6846
11.8858
11.1101
10.353
9.61033
8.87843
8.15448
7.43622
6.72197
6.0105
5.30092
4.59259
3.88509
3.17811
2.47147
1.76504
1.05878
0.352665
30.0455
29.6465
29.1749
28.6371
28.0435
27.4033
26.723
26.0059
25.2533
24.4647
23.6397
22.7785
21.8838
20.9603
20.0153
19.0576
18.0967
17.1424
16.2037
15.2879
14.3999
13.5417
12.7125
11.9098
11.1298
10.3686
9.62217
8.8872
8.16079
7.44064
6.72499
6.01251
5.30222
4.5934
3.88557
3.17839
2.47161
1.76511
1.0588
0.352652
29.862
29.5151
29.0804
28.5682
27.9918
27.3624
26.6884
25.9744
25.2231
24.4354
23.6116
22.7531
21.8627
20.9452
20.0073
19.0573
18.104
17.1565
16.2232
15.3109
14.4243
13.5654
12.7341
11.9284
11.1451
10.3806
9.63132
8.89394
8.1656
7.44398
6.72724
6.01398
5.30314
4.59396
3.88589
3.17855
2.47169
1.76514
1.05881
0.352655
29.6984
29.4044
29.0052
28.5165
27.9552
27.3352
26.6665
25.9553
25.2052
24.418
23.5951
22.7381
21.8502
20.9362
20.0025
19.057
18.1083
17.1649
16.2349
15.3247
14.4388
13.5795
12.7468
11.9392
11.1539
10.3874
9.63641
8.89758
8.16811
7.44564
6.7283
6.01461
5.30349
4.59412
3.88595
3.17855
2.47166
1.76511
1.0588
0.352672
29.5797
29.3336
28.9637
28.4926
27.9416
27.3275
26.6619
25.9522
25.2026
24.4156
23.5926
22.7358
21.8482
20.9348
20.002
19.0574
18.1096
17.167
16.2376
15.3276
14.4417
13.582
12.7488
11.9406
11.1547
10.3878
9.63637
8.8973
8.1677
7.44518
6.72783
6.01418
5.30311
4.5938
3.88568
3.17833
2.4715
1.76499
1.05874
0.352687
29.5318
29.3248
28.9726
28.5083
27.9593
27.3452
26.6791
25.9688
25.2187
24.4309
23.6069
22.7485
21.8589
20.9429
20.0069
19.0591
18.108
17.1624
16.2303
15.3184
14.4313
13.5713
12.7383
11.9309
11.1461
10.3804
9.63024
8.89235
8.16379
7.44216
6.72555
6.01248
5.30186
4.5929
3.88504
3.17788
2.47117
1.76476
1.05857
0.352638
29.6495
29.4042
29.0263
28.545
27.985
27.3642
26.6941
25.9817
25.2306
24.4421
23.6173
22.7576
21.866
20.9472
20.0081
19.0567
18.1022
17.1535
16.219
15.3056
14.418
13.5584
12.7266
11.9208
11.1378
10.3738
9.62526
8.88869
8.16118
7.44036
6.72434
6.01171
5.30139
4.59263
3.88489
3.17781
2.47114
1.76474
1.05854
0.352579
29.6957
29.4018
29.0026
28.5138
27.9524
27.3323
26.6633
25.9519
25.2016
24.4142
23.5911
22.734
21.8462
20.9323
19.9989
19.0537
18.1054
17.1624
16.2328
15.3229
14.4374
13.5783
12.7459
11.9385
11.1533
10.387
9.6361
8.89736
8.16795
7.44554
6.72823
6.01457
5.30347
4.59412
3.88596
3.17856
2.47168
1.76513
1.05882
0.352678
29.8129
29.4661
29.0342
28.5266
27.9548
27.329
26.6571
25.9444
25.1937
24.4066
23.5841
22.7279
21.8411
20.9283
19.9962
19.0524
18.1053
17.1636
16.2351
15.3263
14.4415
13.5831
12.751
11.9437
11.1583
10.3916
9.64013
8.90081
8.17084
7.44789
6.73011
6.01604
5.3046
4.59498
3.8866
3.17905
2.47204
1.76539
1.05897
0.352695
29.979
29.5742
29.1037
28.5711
27.9834
27.3481
26.671
25.9556
25.2039
24.4165
23.5937
22.7367
21.8483
20.9333
19.9984
19.0517
18.1018
17.1575
16.2271
15.3171
14.4323
13.5746
12.7438
11.938
11.1541
10.3887
9.63835
8.89983
8.17041
7.44782
6.73025
6.01629
5.3049
4.59528
3.88687
3.17928
2.47223
1.76553
1.05906
0.352708
30.1681
29.7059
29.1954
28.6355
28.0299
27.3833
26.6998
25.9813
25.2284
24.4404
23.6167
22.7576
21.8655
20.9454
20.0044
19.0511
18.0948
17.1448
16.2099
15.2972
14.4117
13.5551
12.7265
11.9236
11.1427
10.38
9.63198
8.89534
8.16737
7.44584
6.72902
6.01558
5.30453
4.59512
3.88684
3.17932
2.47229
1.7656
1.05911
0.352738
30.3578
29.8435
29.2954
28.709
28.0855
27.4277
26.7378
26.0164
25.2627
24.4745
23.6496
22.7874
21.8899
20.9624
20.0128
19.0503
18.0849
17.1268
16.1854
15.2689
14.3825
13.5274
12.7021
11.9031
11.1262
10.3673
9.62253
8.88851
8.16258
7.44258
6.72688
6.01422
5.3037
4.59465
3.88659
3.17921
2.47227
1.76562
1.05915
0.352788
30.5303
29.972
29.3914
28.7817
28.1422
27.4744
26.7791
26.0556
25.3016
24.5136
23.6878
22.8222
21.9183
20.9821
20.0223
19.049
18.0731
17.1055
16.1566
15.2358
14.3486
13.4956
12.6741
11.8797
11.1075
10.3529
9.61174
8.88067
8.15703
7.43876
6.72431
6.01255
5.30265
4.59401
3.88623
3.17903
2.47219
1.7656
1.05918
0.352849
30.6715
30.0792
29.473
28.8447
28.1925
27.5167
26.8173
26.0925
25.339
24.5519
23.7256
22.8568
21.9464
21.0015
20.0315
19.0474
18.061
17.084
16.1275
15.2027
14.3151
13.4645
12.647
11.8573
11.0897
10.3392
9.60146
8.87319
8.15172
7.43508
6.72183
6.01092
5.30161
4.59338
3.88586
3.17882
2.4721
1.76558
1.0592
0.352911
30.7714
30.156
29.5322
28.891
28.23
27.5488
26.8467
26.1215
25.3688
24.5827
23.7565
22.8852
21.9695
21.0173
20.0389
19.0458
18.0508
17.0661
16.1035
15.1755
14.2879
13.4396
12.6255
11.8396
11.0757
10.3284
9.59345
8.86736
8.14758
7.43222
6.71989
6.00964
5.30079
4.59287
3.88556
3.17866
2.47202
1.76556
1.05921
0.352961
30.8232
30.1961
29.5634
28.9156
28.2501
27.5662
26.8629
26.1375
25.3855
24.6002
23.7741
22.9016
21.9828
21.0264
20.0431
19.045
18.0451
17.0559
16.0898
15.1602
14.2728
13.4257
12.6137
11.8299
11.068
10.3226
9.58908
8.86419
8.14533
7.43066
6.71883
6.00894
5.30034
4.59259
3.8854
3.17857
2.47197
1.76554
1.05922
0.352988
30.8235
30.1963
29.5637
28.9159
28.2504
27.5665
26.8632
26.1379
25.3859
24.6006
23.7746
22.9021
21.9832
21.0268
20.0435
19.0454
18.0454
17.0562
16.0901
15.1605
14.273
13.4259
12.6138
11.83
11.0681
10.3226
9.58912
8.86422
8.14536
7.43067
6.71884
6.00895
5.30034
4.59259
3.8854
3.17857
2.47197
1.76554
1.05922
0.352987
30.7723
30.1568
29.5331
28.8918
28.2308
27.5497
26.8477
26.1226
25.37
24.584
23.7578
22.8866
21.9708
21.0186
20.04
19.0469
18.0518
17.067
16.1043
15.1762
14.2885
13.44
12.6259
11.8399
11.0759
10.3286
9.59356
8.86745
8.14765
7.43226
6.71992
6.00966
5.3008
4.59287
3.88556
3.17866
2.47202
1.76555
1.05921
0.352958
30.6729
30.0806
29.4744
28.846
28.1939
27.5182
26.8189
26.0943
25.3409
24.5539
23.7277
22.8589
21.9485
21.0035
20.0334
19.0491
18.0626
17.0854
16.1288
15.2037
14.3159
13.4652
12.6476
11.8577
11.09
10.3394
9.60164
8.87332
8.15182
7.43515
6.72188
6.01095
5.30163
4.59339
3.88587
3.17882
2.4721
1.76558
1.05919
0.352907
30.5321
29.9738
29.3932
28.7835
28.1441
27.4764
26.7812
26.0579
25.3041
24.5163
23.6906
22.825
21.921
20.9848
20.0248
19.0512
18.0751
17.1073
16.1581
15.2371
14.3496
13.4964
12.6748
11.8803
11.108
10.3532
9.61197
8.88084
8.15715
7.43885
6.72437
6.01259
5.30267
4.59403
3.88624
3.17902
2.47219
1.7656
1.05917
0.352843
30.36
29.8457
29.2976
28.7112
28.0878
27.4301
26.7404
26.0192
25.2656
24.4776
23.6529
22.7908
21.8932
20.9656
20.0157
19.0529
18.0872
17.1288
16.1871
15.2704
14.3837
13.5284
12.7029
11.9037
11.1267
10.3677
9.62281
8.88872
8.16273
7.44269
6.72695
6.01427
5.30372
4.59466
3.8866
3.17921
2.47226
1.76561
1.05914
0.352781
30.1706
29.7084
29.1978
28.6379
28.0324
27.386
26.7026
25.9843
25.2316
24.4439
23.6204
22.7613
21.8691
20.9489
20.0077
19.0541
18.0974
17.1471
16.2117
15.2988
14.413
13.5561
12.7274
11.9243
11.1432
10.3804
9.63228
8.89556
8.16752
7.44595
6.7291
6.01563
5.30455
4.59513
3.88684
3.17931
2.47229
1.76559
1.0591
0.35273
29.9816
29.5768
29.1063
28.5736
27.9861
27.351
26.674
25.9588
25.2074
24.4202
23.5975
22.7406
21.8522
20.9371
20.0019
19.0548
18.1045
17.1599
16.2291
15.3188
14.4336
13.5757
12.7447
11.9387
11.1546
10.3891
9.63865
8.90005
8.17057
7.44793
6.73032
6.01634
5.30492
4.59528
3.88687
3.17927
2.47222
1.76552
1.05905
0.3527
29.8156
29.4687
29.0368
28.5293
27.9575
27.3318
26.6602
25.9477
25.1973
24.4104
23.5881
22.732
21.8451
20.9322
19.9998
19.0556
18.1082
17.1661
16.2372
15.328
14.4429
13.5842
12.7519
11.9443
11.1588
10.392
9.64043
8.90103
8.17099
7.44799
6.73017
6.01608
5.30462
4.59498
3.88659
3.17903
2.47202
1.76537
1.05895
0.352686
29.6984
29.4044
29.0052
28.5164
27.9551
27.3351
26.6664
25.9552
25.2051
24.418
23.5951
22.7381
21.8502
20.9362
20.0026
19.0571
18.1083
17.1649
16.2349
15.3246
14.4387
13.5794
12.7468
11.9392
11.1539
10.3874
9.63639
8.89756
8.16809
7.44563
6.72828
6.0146
5.30348
4.59412
3.88594
3.17854
2.47166
1.76511
1.0588
0.35267
29.6521
29.4068
29.0288
28.5475
27.9876
27.3669
26.697
25.9849
25.234
24.4458
23.6213
22.7617
21.87
20.9511
20.0118
19.0601
18.1051
17.1559
16.221
15.3073
14.4193
13.5594
12.7274
11.9214
11.1383
10.3742
9.62551
8.88886
8.1613
7.44043
6.72438
6.01171
5.30138
4.59261
3.88487
3.17778
2.47112
1.76472
1.05852
0.352567
29.8084
29.5197
29.1098
28.6062
28.0314
27.4014
26.7261
26.0112
25.2591
24.4701
23.6443
22.7822
21.8866
20.9624
20.0167
19.0581
18.0964
17.1412
16.2014
15.2845
14.3953
13.536
12.7061
11.903
11.123
10.3621
9.61623
8.88197
8.15632
7.43693
6.72199
6.01013
5.30036
4.59198
3.88449
3.17758
2.471
1.76465
1.05846
0.352516
29.8594
29.5125
29.0778
28.5656
27.989
27.3596
26.6853
25.9711
25.2196
24.4316
23.6077
22.7492
21.8588
20.9414
20.0038
19.0541
18.1011
17.1541
16.2212
15.3093
14.4229
13.5643
12.7332
11.9277
11.1445
10.3802
9.63102
8.89371
8.16544
7.44387
6.72717
6.01394
5.30312
4.59395
3.88589
3.17856
2.4717
1.76516
1.05883
0.352661
29.979
29.5742
29.1037
28.5711
27.9834
27.3481
26.671
25.9556
25.2039
24.4165
23.5937
22.7367
21.8483
20.9333
19.9984
19.0517
18.1018
17.1575
16.2271
15.3171
14.4323
13.5746
12.7438
11.938
11.1541
10.3887
9.63835
8.89983
8.17041
7.44782
6.73025
6.01629
5.3049
4.59528
3.88687
3.17928
2.47223