# vtk DataFile Version 2.0
I need something to put here
ASCII

DATASET STRUCTURED_GRID
DIMENSIONS 41 21 21
POINTS 18081 float
0.000000 0.000000 0.000000
0.100000 0.000000 0.000000
0.200000 0.000000 0.000000
0.300000 0.000000 0.000000
0.400000 0.000000 0.000000
0.500000 0.000000 0.000000
0.600000 0.000000 0.000000
0.700000 0.000000 0.000000
0.800000 0.000000 0.000000
0.900000 0.000000 0.000000
1.000000 0.000000 0.000000
1.100000 0.000000 0.000000
1.200000 0.000000 0.000000
1.300000 0.000000 0.000000
1.400000 0.000000 0.000000
1.500000 0.000000 0.000000
1.600000 0.000000 0.000000
1.700000 0.000000 0.000000
1.800000 0.000000 0.000000
1.900000 0.000000 0.000000
2.000000 0.000000 0.000000
2.100000 0.000000 0.000000
2.200000 0.000000 0.000000
2.300000 0.000000 0.000000
2.400000 0.000000 0.000000
2.500000 0.000000 0.000000
2.600000 0.000000 0.000000
2.700000 0.000000 0.000000
2.800000 0.000000 0.000000
2.900000 0.000000 0.000000
3.000000 0.000000 0.000000
3.100000 0.000000 0.000000
3.200000 0.000000 0.000000
3.300000 0.000000 0.000000
3.400000 0.000000 0.000000
3.500000 0.000000 0.000000
3.600000 0.000000 0.000000
3.700000 0.000000 0.000000
3.800000 0.000000 0.000000
3.900000 0.000000 0.000000
4.000000 0.000000 0.000000
0.000000 0.100000 0.000000
0.100000 0.100000 0.000000
0.200000 0.100000 0.000000
0.300000 0.100000 0.000000
0.400000 0.100000 0.000000
0.500000 0.100000 0.000000
0.600000 0.100000 0.000000
0.700000 0.100000 0.000000
0.800000 0.100000 0.000000
0.900000 0.100000 0.000000
1.000000 0.100000 0.000000
1.100000 0.100000 0.000000
1.200000 0.100000 0.000000
1.300000 0.100000 0.000000
1.400000 0.100000 0.000000
1.500000 0.100000 0.000000
1.600000 0.100000 0.000000
1.700000 0.100000 0.000000
1.800000 0.100000 0.000000
1.900000 0.100000 0.000000
2.000000 0.100000 0.000000
2.100000 0.100000 0.000000
2.200000 0.100000 0.000000
2.300000 0.100000 0.000000
2.400000 0.100000 0.000000
2.500000 0.100000 0.000000
2.600000 0.100000 0.000000
2.700000 0.100000 0.000000
2.800000 0.100000 0.000000
2.900000 0.100000 0.000000
3.000000 0.100000 0.000000
3.100000 0.100000 0.000000
3.200000 0.100000 0.000000
3.300000 0.100000 0.000000
3.400000 0.100000 0.000000
3.500000 0.100000 0.000000
3.600000 0.100000 0.000000
3.700000 0.100000 0.000000
3.800000 0.100000 0.000000
3.900000 0.100000 0.000000
4.000000 0.100000 0.000000
0.000000 0.200000 0.000000
0.100000 0.200000 0.000000
0.200000 0.200000 0.000000
0.300000 0.200000 0.000000
0.400000 0.200000 0.000000
0.500000 0.200000 0.000000
0.600000 0.200000 0.000000
0.700000 0.200000 0.000000
0.800000 0.200000 0.000000
0.900000 0.200000 0.000000
1.000000 0.200000 0.000000
1.100000 0.200000 0.000000
1.200000 0.200000 0.000000
1.300000 0.200000 0.000000
1.400000 0.200000 0.000000
1.500000 0.200000 0.000000
1.600000 0.200000 0.000000
1.700000 0.200000 0.000000
1.800000 0.200000 0.000000
1.900000 0.200000 0.000000
2.000000 0.200000 0.000000
2.100000 0.200000 0.000000
2.200000 0.200000 0.000000
2.300000 0.200000 0.000000
2.400000 0.200000 0.000000
2.500000 0.200000 0.000000
2.600000 0.200000 0.000000
2.700000 0.200000 0.000000
2.800000 0.200000 0.000000
2.900000 0.200000 0.000000
3.000000 0.200000 0.000000
3.100000 0.200000 0.000000
3.200000 0.200000 0.000000
3.300000 0.200000 0.000000
3.400000 0.200000 0.000000
3.500000 0.200000 0.000000
3.600000 0.200000 0.000000
3.700000 0.200000 0.000000
3.800000 0.200000 0.000000
3.900000 0.200000 0.000000
4.000000 0.200000 0.000000
0.000000 0.300000 0.000000
0.100000 0.300000 0.000000
0.200000 0.300000 0.000000
0.300000 0.300000 0.000000
0.400000 0.300000 0.000000
0.500000 0.300000 0.000000
0.600000 0.300000 0.000000
0.700000 0.300000 0.000000
0.800000 0.300000 0.000000
0.900000 0.300000 0.000000
1.000000 0.300000 0.000000
1.100000 0.300000 0.000000
1.200000 0.300000 0.000000
1.300000 0.300000 0.000000
1.400000 0.300000 0.000000
1.500000 0.300000 0.000000
1.600000 0.300000 0.000000
1.700000 0.300000 0.000000
1.800000 0.300000 0.000000
1.900000 0.300000 0.000000
2.000000 0.300000 0.000000
2.100000 0.300000 0.000000
2.200000 0.300000 0.000000
2.300000 0.300000 0.000000
2.400000 0.300000 0.000000
2.500000 0.300000 0.000000
2.600000 0.300000 0.000000
2.700000 0.300000 0.000000
2.800000 0.300000 0.000000
2.900000 0.300000 0.000000
3.000000 0.300000 0.000000
3.100000 0.300000 0.000000
3.200000 0.300000 0.000000
3.300000 0.300000 0.000000
3.400000 0.300000 0.000000
3.500000 0.300000 0.000000
3.600000 0.300000 0.000000
3.700000 0.300000 0.000000
3.800000 0.300000 0.000000
3.900000 0.300000 0.000000
4.000000 0.300000 0.000000
0.000000 0.400000 0.000000
0.100000 0.400000 0.000000
0.200000 0.400000 0.000000
0.300000 0.400000 0.000000
0.400000 0.400000 0.000000
0.500000 0.400000 0.000000
0.600000 0.400000 0.000000
0.700000 0.400000 0.000000
0.800000 0.400000 0.000000
0.900000 0.400000 0.000000
1.000000 0.400000 0.000000
1.100000 0.400000 0.000000
1.200000 0.400000 0.000000
1.300000 0.400000 0.000000
1.400000 0.400000 0.000000
1.500000 0.400000 0.000000
1.600000 0.400000 0.000000
1.700000 0.400000 0.000000
1.800000 0.400000 0.000000
1.900000 0.400000 0.000000
2.000000 0.400000 0.000000
2.100000 0.400000 0.000000
2.200000 0.400000 0.000000
2.300000 0.400000 0.000000
2.400000 0.400000 0.000000
2.500000 0.400000 0.000000
2.600000 0.400000 0.000000
2.700000 0.400000 0.000000
2.800000 0.400000 0.000000
2.900000 0.400000 0.000000
3.000000 0.400000 0.000000
3.100000 0.400000 0.000000
3.200000 0.400000 0.000000
3.300000 0.400000 0.000000
3.400000 0.400000 0.000000
3.500000 0.400000 0.000000
3.600000 0.400000 0.000000
3.700000 0.400000 0.000000
3.800000 0.400000 0.000000
3.900000 0.400000 0.000000
4.000000 0.400000 0.000000
0.000000 0.500000 0.000000
0.100000 0.500000 0.000000
0.200000 0.500000 0.000000
0.300000 0.500000 0.000000
0.400000 0.500000 0.000000
0.500000 0.500000 0.000000
0.600000 0.500000 0.000000
0.700000 0.500000 0.000000
0.800000 0.500000 0.000000
0.900000 0.500000 0.000000
1.000000 0.500000 0.000000
1.100000 0.500000 0.000000
1.200000 0.500000 0.000000
1.300000 0.500000 0.000000
1.400000 0.500000 0.000000
1.500000 0.500000 0.000000
1.600000 0.500000 0.000000
1.700000 0.500000 0.000000
1.800000 0.500000 0.000000
1.900000 0.500000 0.000000
2.000000 0.500000 0.000000
2.100000 0.500000 0.000000
2.200000 0.500000 0.000000
2.300000 0.500000 0.000000
2.400000 0.500000 0.000000
2.500000 0.500000 0.000000
2.600000 0.500000 0.000000
2.700000 0.500000 0.000000
2.800000 0.500000 0.000000
2.900000 0.500000 0.000000
3.000000 0.500000 0.000000
3.100000 0.500000 0.000000
3.200000 0.500000 0.000000
3.300000 0.500000 0.000000
3.400000 0.500000 0.000000
3.500000 0.500000 0.000000
3.600000 0.500000 0.000000
3.700000 0.500000 0.000000
3.800000 0.500000 0.000000
3.900000 0.500000 0.000000
4.000000 0.500000 0.000000
0.000000 0.600000 0.000000
0.100000 0.600000 0.000000
0.200000 0.600000 0.000000
0.300000 0.600000 0.000000
0.400000 0.600000 0.000000
0.500000 0.600000 0.000000
0.600000 0.600000 0.000000
0.700000 0.600000 0.000000
0.800000 0.600000 0.000000
0.900000 0.600000 0.000000
1.000000 0.600000 0.000000
1.100000 0.600000 0.000000
1.200000 0.600000 0.000000
1.300000 0.600000 0.000000
1.400000 0.600000 0.000000
1.500000 0.600000 0.000000
1.600000 0.600000 0.000000
1.700000 0.600000 0.000000
1.800000 0.600000 0.000000
1.900000 0.600000 0.000000
2.000000 0.600000 0.000000
2.100000 0.600000 0.000000
2.200000 0.600000 0.000000
2.300000 0.600000 0.000000
2.400000 0.600000 0.000000
2.500000 0.600000 0.000000
2.600000 0.600000 0.000000
2.700000 0.600000 0.000000
2.800000 0.600000 0.000000
2.900000 0.600000 0.000000
3.000000 0.600000 0.000000
3.100000 0.600000 0.000000
3.200000 0.600000 0.000000
3.300000 0.600000 0.000000
3.400000 0.600000 0.000000
3.500000 0.600000 0.000000
3.600000 0.600000 0.000000
3.700000 0.600000 0.000000
3.800000 0.600000 0.000000
3.900000 0.600000 0.000000
4.000000 0.600000 0.000000
0.000000 0.700000 0.000000
0.100000 0.700000 0.000000
0.200000 0.700000 0.000000
0.300000 0.700000 0.000000
0.400000 0.700000 0.000000
0.500000 0.700000 0.000000
0.600000 0.700000 0.000000
0.700000 0.700000 0.000000
0.800000 0.700000 0.000000
0.900000 0.700000 0.000000
1.000000 0.700000 0.000000
1.100000 0.700000 0.000000
1.200000 0.700000 0.000000
1.300000 0.700000 0.000000
1.400000 0.700000 0.000000
1.500000 0.700000 0.000000
1.600000 0.700000 0.000000
1.700000 0.700000 0.000000
1.800000 0.700000 0.000000
1.900000 0.700000 0.000000
2.000000 0.700000 0.000000
2.100000 0.700000 0.000000
2.200000 0.700000 0.000000
2.300000 0.700000 0.000000
2.400000 0.700000 0.000000
2.500000 0.700000 0.000000
2.600000 0.700000 0.000000
2.700000 0.700000 0.000000
2.800000 0.700000 0.000000
2.900000 0.700000 0.000000
3.000000 0.700000 0.000000
3.100000 0.700000 0.000000
3.200000 0.700000 0.000000
3.300000 0.700000 0.000000
3.400000 0.700000 0.000000
3.500000 0.700000 0.000000
3.600000 0.700000 0.000000
3.700000 0.700000 0.000000
3.800000 0.700000 0.000000
3.900000 0.700000 0.000000
4.000000 0.700000 0.000000
0.000000 0.800000 0.000000
0.100000 0.800000 0.000000
0.200000 0.800000 0.000000
0.300000 0.800000 0.000000
0.400000 0.800000 0.000000
0.500000 0.800000 0.000000
0.600000 0.800000 0.000000
0.700000 0.800000 0.000000
0.800000 0.800000 0.000000
0.900000 0.800000 0.000000
1.000000 0.800000 0.000000
1.100000 0.800000 0.000000
1.200000 0.800000 0.000000
1.300000 0.800000 0.000000
1.400000 0.800000 0.000000
1.500000 0.800000 0.000000
1.600000 0.800000 0.000000
1.700000 0.800000 0.000000
1.800000 0.800000 0.000000
1.900000 0.800000 0.000000
2.000000 0.800000 0.000000
2.100000 0.800000 0.000000
2.200000 0.800000 0.000000
2.300000 0.800000 0.000000
2.400000 0.800000 0.000000
2.500000 0.800000 0.000000
2.600000 0.800000 0.000000
2.700000 0.800000 0.000000
2.800000 0.800000 0.000000
2.900000 0.800000 0.000000
3.000000 0.800000 0.000000
3.100000 0.800000 0.000000
3.200000 0.800000 0.000000
3.300000 0.800000 0.000000
3.400000 0.800000 0.000000
3.500000 0.800000 0.000000
3.600000 0.800000 0.000000
[...]
CELL_DATA 16000
SCALARS pressure float 1
LOOKUP_TABLE default
26.2144
26.0317
25.6936
25.2425
24.7116
24.1252
23.5004
22.8491
22.1797
21.4979
20.8077
20.1119
19.4122
18.7101
18.0064
17.3016
16.5962
15.8904
15.1845
14.4786
13.7726
13.0665
12.3604
11.6543
10.9482
10.242
9.53573
8.82945
8.12315
7.41683
6.71049
6.00414
5.29779
4.59142
3.88506
3.17869
2.47231
1.76594
1.05957
0.353189
26.2729
26.063
25.7103
25.2513
24.7162
24.1275
23.5014
22.8495
22.1797
21.4978
20.8075
20.1117
19.4121
18.71
18.0062
17.3015
16.5961
15.8904
15.1845
14.4785
13.7725
13.0665
12.3604
11.6543
10.9482
10.242
9.53572
8.82945
8.12315
7.41683
6.71049
6.00414
5.29779
4.59142
3.88505
3.17868
2.47231
1.76594
1.05957
0.353189
26.393
26.1436
25.7641
25.2871
24.7399
24.1432
23.5118
22.8563
22.1842
21.5007
20.8094
20.1129
19.4128
18.7104
18.0065
17.3016
16.5961
15.8904
15.1845
14.4785
13.7725
13.0665
12.3604
11.6543
10.9482
10.242
9.53574
8.82946
8.12316
7.41684
6.7105
6.00415
5.29779
4.59142
3.88506
3.17868
2.47231
1.76594
1.05956
0.353189
26.549
26.2551
25.8423
25.3413
24.7773
24.1688
23.5292
22.8681
22.1921
21.5059
20.8129
20.1152
19.4143
18.7114
18.0071
17.3019
16.5963
15.8904
15.1845
14.4785
13.7725
13.0665
12.3605
11.6544
10.9482
10.242
9.53576
8.82948
8.12317
7.41685
6.7105
6.00415
5.29779
4.59143
3.88506
3.17869
2.47231
1.76594
1.05957
0.35319
26.7186
26.3813
25.9336
25.4062
24.8228
24.2005
23.5511
22.8831
22.2023
21.5128
20.8175
20.1182
19.4163
18.7127
18.0079
17.3023
16.5965
15.8905
15.1845
14.4785
13.7725
13.0666
12.3605
11.6544
10.9483
10.2421
9.5358
8.82951
8.1232
7.41686
6.71052
6.00416
5.2978
4.59143
3.88506
3.17869
2.47231
1.76594
1.05957
0.353189
26.8841
26.5078
26.0272
25.474
24.8712
24.2346
23.5749
22.8995
22.2135
21.5204
20.8226
20.1217
19.4186
18.7141
18.0088
17.3028
16.5967
15.8906
15.1845
14.4785
13.7726
13.0666
12.3606
11.6545
10.9483
10.2421
9.53584
8.82955
8.12322
7.41688
6.71053
6.00417
5.2978
4.59143
3.88506
3.17869
2.47231
1.76594
1.05957
0.353189
27.0314
26.6229
26.1138
25.5376
24.9171
24.2672
23.5978
22.9154
22.2245
21.5279
20.8277
20.1251
19.4209
18.7156
18.0097
17.3033
16.5969
15.8906
15.1845
14.4785
13.7726
13.0667
12.3607
11.6546
10.9484
10.2422
9.53589
8.82958
8.12325
7.4169
6.71054
6.00418
5.29781
4.59144
3.88506
3.17869
2.47232
1.76594
1.05956
0.353188
27.1503
26.7171
26.1856
25.591
24.956
24.2951
23.6175
22.9292
22.2339
21.5344
20.8321
20.1281
19.4229
18.7169
18.0105
17.3038
16.5971
15.8906
15.1845
14.4785
13.7726
13.0667
12.3607
11.6546
10.9485
10.2422
9.53594
8.82962
8.12328
7.41692
6.71056
6.00419
5.29782
4.59144
3.88507
3.17869
2.47232
1.76594
1.05956
0.353188
27.2335
26.7836
26.2368
25.6292
24.984
24.3153
23.6318
22.9392
22.2409
21.5392
20.8353
20.1303
19.4244
18.7179
18.0111
17.3041
16.5972
15.8907
15.1845
14.4785
13.7726
13.0668
12.3608
11.6547
10.9485
10.2423
9.53598
8.82965
8.1233
7.41694
6.71057
6.0042
5.29782
4.59145
3.88507
3.17869
2.47232
1.76594
1.05956
0.353187
27.2762
26.8179
26.2633
25.6492
24.9987
24.3259
23.6394
22.9445
22.2446
21.5417
20.8371
20.1315
19.4252
18.7185
18.0114
17.3043
16.5973
15.8907
15.1845
14.4785
13.7727
13.0668
12.3608
11.6547
10.9486
10.2423
9.536
8.82967
8.12331
7.41695
6.71058
6.0042
5.29783
4.59145
3.88507
3.17869
2.47232
1.76594
1.05956
0.353187
27.2762
26.818
26.2633
25.6492
24.9987
24.3259
23.6394
22.9445
22.2446
21.5417
20.8371
20.1315
19.4253
18.7185
18.0114
17.3043
16.5973
15.8907
15.1845
14.4785
13.7727
13.0668
12.3608
11.6547
10.9486
10.2423
9.53601
8.82967
8.12332
7.41695
6.71058
6.0042
5.29783
4.59145
3.88507
3.17869
2.47232
1.76594
1.05956
0.353186
27.2335
26.7836
26.2368
25.6293
24.984
24.3153
23.6319
22.9393
22.241
21.5392
20.8354
20.1304
19.4245
18.718
18.0112
17.3042
16.5973
15.8907
15.1845
14.4786
13.7727
13.0668
12.3608
11.6547
10.9485
10.2423
9.536
8.82966
8.12331
7.41695
6.71058
6.0042
5.29783
4.59145
3.88507
3.17869
2.47232
1.76594
1.05956
0.353186
27.1504
26.7171
26.1857
25.591
24.956
24.2951
23.6176
22.9292
22.234
21.5345
20.8322
20.1282
19.423
18.7171
18.0106
17.3039
16.5972
15.8908
15.1846
14.4786
13.7727
13.0668
12.3608
11.6547
10.9485
10.2423
9.53597
8.82964
8.1233
7.41694
6.71057
6.0042
5.29782
4.59145
3.88507
3.17869
2.47232
1.76594
1.05956
0.353185
27.0315
26.623
26.1139
25.5377
24.9172
24.2673
23.5979
22.9155
22.2246
21.528
20.8278
20.1252
19.4211
18.7158
18.0099
17.3035
16.5971
15.8908
15.1846
14.4787
13.7727
13.0668
12.3607
11.6546
10.9485
10.2422
9.53593
8.82961
8.12327
7.41692
6.71056
6.00419
5.29782
4.59144
3.88507
3.17869
2.47232
1.76594
1.05956
0.353185
26.8841
26.5079
26.0273
25.4741
24.8713
24.2347
23.575
22.8996
22.2136
21.5206
20.8228
20.1219
19.4188
18.7144
18.009
17.3031
16.5969
15.8908
15.1847
14.4787
13.7727
13.0667
12.3607
11.6546
10.9484
10.2422
9.53589
8.82958
8.12325
7.4169
6.71055
6.00418
5.29781
4.59144
3.88507
3.17869
2.47232
1.76594
1.05956
0.353185
26.7187
26.3814
25.9337
25.4063
24.823
24.2006
23.5512
22.8832
22.2024
21.513
20.8177
20.1185
19.4166
18.7129
18.0081
17.3026
16.5967
15.8907
15.1847
14.4787
13.7727
13.0667
12.3606
11.6545
10.9483
10.2421
9.53585
8.82955
8.12323
7.41689
6.71053
6.00417
5.29781
4.59144
3.88506
3.17869
2.47231
1.76594
1.05956
0.353185
26.5491
26.2552
25.8424
25.3414
24.7774
24.1689
23.5293
22.8682
22.1923
21.5061
20.8131
20.1154
19.4146
18.7116
18.0073
17.3022
16.5965
15.8907
15.1847
14.4787
13.7727
13.0667
12.3606
11.6545
10.9483
10.2421
9.53582
8.82952
8.12321
7.41687
6.71052
6.00416
5.2978
4.59143
3.88506
3.17869
2.47231
1.76594
1.05956
0.353185
26.3932
26.1437
25.7642
25.2872
24.7401
24.1433
23.512
22.8565
22.1844
21.5009
20.8096
20.1131
19.4131
18.7107
18.0068
17.3019
16.5964
15.8906
15.1847
14.4787
13.7727
13.0667
12.3606
11.6544
10.9483
10.242
9.53579
8.8295
8.12319
7.41686
6.71051
6.00416
5.2978
4.59143
3.88506
3.17869
2.47231
1.76594
1.05956
0.353186
26.2731
26.0631
25.7104
25.2514
24.7163
24.1276
23.5015
22.8496
22.1799
21.498
20.8077
20.1119
19.4123
18.7102
18.0065
17.3017
16.5964
15.8906
15.1847
14.4787
13.7727
13.0667
12.3606
11.6544
10.9483
10.242
9.53578
8.82949
8.12318
7.41685
6.71051
6.00416
5.29779
4.59143
3.88506
3.17869
2.47231
1.76594
1.05956
0.353187
26.2145
26.0318
25.6938
25.2426
24.7117
24.1253
23.5005
22.8492
22.1798
21.4981
20.8079
20.1121
19.4125
18.7104
18.0066
17.3018
16.5964
15.8907
15.1848
14.4788
13.7727
13.0667
12.3606
11.6544
10.9483
10.242
9.53578
8.82949
8.12318
7.41685
6.71051
6.00416
5.29779
4.59143
3.88506
3.17869
2.47231
1.76594
1.05956
0.353188
26.2729
26.063
25.7103
25.2513
24.7162
24.1275
23.5014
22.8495
22.1797
21.4978
20.8075
20.1117
19.4121
18.71
18.0062
17.3015
16.5961
15.8904
15.1845
14.4785
13.7725
13.0665
12.3604
11.6543
10.9482
10.242
9.53572
8.82945
8.12315
7.41683
6.71049
6.00414
5.29779
4.59142
3.88505
3.17868
2.47231
1.76594
1.05957
0.353189
26.3237
26.0739
25.7043
25.2397
24.7039
24.1165
23.4923
22.8423
22.1742
21.4936
20.8044
20.1094
19.4104
18.7088
18.0054
17.3009
16.5957
15.8901
15.1843
14.4784
13.7725
13.0664
12.3604
11.6543
10.9481
10.2419
9.5357
8.82943
8.12314
7.41682
6.71048
6.00414
5.29778
4.59142
3.88505
3.17868
2.47231
1.76594
1.05957
0.35319
26.4438
26.145
25.7456
25.2632
24.717
24.1236
23.496
22.844
22.1748
21.4936
20.8042
20.1091
19.4101
18.7085
18.0052
17.3007
16.5955
15.89
15.1842
14.4783
13.7724
13.0664
12.3604
11.6543
10.9481
10.2419
9.5357
8.82943
8.12314
7.41682
6.71048
6.00414
5.29778
4.59142
3.88505
3.17868
2.47231
1.76594
1.05956
0.35319
26.6057
26.253
25.8173
25.3105
24.748
24.1438
23.509
22.8523
22.1801
21.4969
20.8062
20.1103
19.4108
18.7089
18.0053
17.3007
16.5955
15.8899
15.1841
14.4783
13.7724
13.0664
12.3604
11.6543
10.9481
10.2419
9.53571
8.82944
8.12314
7.41682
6.71049
6.00414
5.29778
4.59142
3.88505
3.17868
2.47231
1.76594
1.05957
0.35319
26.7836
26.3786
25.9052
25.3714
24.7898
24.1721
23.5281
22.865
22.1885
21.5024
20.8098
20.1126
19.4123
18.7098
18.0058
17.301
16.5956
15.8899
15.1841
14.4782
13.7723
13.0664
12.3604
11.6543
10.9482
10.242
9.53573
8.82946
8.12316
7.41683
6.71049
6.00414
5.29778
4.59142
3.88505
3.17868
2.47231
1.76594
1.05957
0.35319
26.9575
26.5057
25.9971
25.4368
24.8358
24.2041
23.5501
22.88
22.1986
21.5092
20.8143
20.1155
19.4141
18.711
18.0065
17.3013
16.5957
15.8899
15.1841
14.4782
13.7723
13.0664
12.3604
11.6543
10.9482
10.242
9.53577
8.82948
8.12318
7.41685
6.7105
6.00415
5.29779
4.59142
3.88506
3.17869
2.47231
1.76594
1.05957
0.35319
27.1123
26.6218
26.0827
25.499
24.8803
24.2355
23.5719
22.895
22.2088
21.5161
20.8189
20.1186
19.4162
18.7122
18.0073
17.3017
16.5959
15.89
15.1841
14.4782
13.7724
13.0665
12.3605
11.6544
10.9483
10.2421
9.5358
8.82951
8.1232
7.41686
6.71051
6.00416
5.29779
4.59143
3.88506
3.17869
2.47231
1.76594
1.05957
0.35319
27.2371
26.717
26.154
25.5514
24.9182
24.2625
23.5909
22.9082
22.2178
21.5222
20.823
20.1213
19.418
18.7134
18.008
17.3021
16.596
15.89
15.1841
14.4782
13.7724
13.0665
12.3605
11.6545
10.9483
10.2421
9.53584
8.82954
8.12322
7.41688
6.71053
6.00417
5.2978
4.59143
3.88506
3.17869
2.47232
1.76594
1.05957
0.35319
27.3242
26.7842
26.2049
25.5892
24.9457
24.2822
23.6048
22.9179
22.2245
21.5267
20.8261
20.1234
19.4194
18.7143
18.0086
17.3024
16.5962
15.89
15.1841
14.4782
13.7724
13.0665
12.3606
11.6545
10.9483
10.2421
9.53587
8.82957
8.12324
7.41689
6.71054
6.00417
5.2978
4.59143
3.88506
3.17869
2.47232
1.76594
1.05957
0.35319
27.369
26.8189
26.2313
25.6089
24.9601
24.2926
23.6122
22.9231
22.2281
21.5292
20.8277
20.1245
19.4201
18.7148
18.0089
17.3026
16.5962
15.89
15.1841
14.4782
13.7724
13.0665
12.3606
11.6545
10.9484
10.2422
9.53589
8.82958
8.12325
7.4169
6.71054
6.00418
5.29781
4.59144
3.88506
3.17869
2.47232
1.76594
1.05957
0.35319
27.369
26.8189
26.2313
25.6089
24.9601
24.2926
23.6122
22.9231
22.2281
21.5292
20.8278
20.1246
19.4202
18.7148
18.0089
17.3026
16.5963
15.8901
15.1841
14.4782
13.7724
13.0666
12.3606
11.6545
10.9484
10.2422
9.53589
8.82958
8.12325
7.4169
6.71054
6.00418
5.29781
4.59144
3.88506
3.17869
2.47232
1.76594
1.05957
0.35319
27.3243
26.7842
26.2049
25.5892
24.9457
24.2822
23.6049
22.918
22.2246
21.5268
20.8261
20.1235
19.4195
18.7144
18.0086
17.3025
16.5963
15.8901
15.1841
14.4783
13.7724
13.0666
12.3606
11.6545
10.9484
10.2422
9.53589
8.82958
8.12325
7.4169
6.71054
6.00418
5.29781
4.59144
3.88506
3.17869
2.47232
1.76594
1.05957
0.35319
27.2371
26.717
26.1541
25.5515
24.9182
24.2626
23.591
22.9083
22.2179
21.5223
20.8231
20.1215
19.4181
18.7135
18.0081
17.3023
16.5962
15.8901
15.1842
14.4783
13.7725
13.0666
12.3606
11.6545
10.9483
10.2421
9.53587
8.82956
8.12324
7.41689
6.71054
6.00417
5.29781
4.59143
3.88506
3.17869
2.47232
1.76594
1.05957
0.353189
27.1124
26.6219
26.0828
25.4991
24.8803
24.2356
23.572
22.8952
22.2089
21.5162
20.819
20.1187
19.4163
18.7124
18.0075
17.3019
16.5961
15.8901
15.1842
14.4784
13.7725
13.0665
12.3605
11.6545
10.9483
10.2421
9.53584
8.82954
8.12322
7.41688
6.71053
6.00417
5.2978
4.59143
3.88506
3.17869
2.47232
1.76594
1.05957
0.353189
26.9576
26.5058
25.9971
25.4369
24.8359
24.2042
23.5502
22.8801
22.1987
21.5093
20.8144
20.1157
19.4144
18.7112
18.0068
17.3016
16.5959
15.8901
15.1843
14.4784
13.7725
13.0665
12.3605
11.6544
10.9483
10.2421
9.53581
8.82952
8.1232
7.41687
6.71052
6.00416
5.2978
4.59143
3.88506
3.17869
2.47232
1.76594
1.05957
0.353189
26.7837
26.3787
25.9053
25.3715
24.7899
24.1723
23.5282
22.8652
22.1886
21.5026
20.81
20.1128
19.4125
18.71
18.0061
17.3012
16.5958
15.8901
15.1843
14.4784
13.7725
13.0665
12.3605
11.6544
10.9482
10.242
9.53578
8.8295
8.12319
7.41686
6.71051
6.00416
5.29779
4.59143
3.88506
3.17869
2.47231
1.76594
1.05957
0.353188
26.6058
26.2531
25.8174
25.3106
24.7481
24.1439
23.5091
22.8524
22.1802
21.4971
20.8064
20.1105
19.4111
18.7091
18.0056
17.301
16.5957
15.8901
15.1844
14.4785
13.7725
13.0665
12.3605
11.6544
10.9482
10.242
9.53576
8.82948
8.12317
7.41685
6.7105
6.00415
5.29779
4.59142
3.88506
3.17869
2.47231
1.76594
1.05957
0.353188
26.4439
26.1451
25.7457
25.2633
24.7172
24.1237
23.4961
22.8441
22.175
21.4938
20.8044
20.1093
19.4104
18.7088
18.0054
17.301
16.5958
15.8902
15.1844
14.4785
13.7726
13.0666
12.3605
11.6544
10.9482
10.242
9.53575
8.82947
8.12317
7.41684
6.7105
6.00415
5.29779
4.59142
3.88506
3.17868
2.47231
1.76594
1.05957
0.353188
26.3238
26.074
25.7044
25.2398
24.704
24.1166
23.4925
22.8424
22.1744
21.4938
20.8047
20.1097
19.4107
18.7091
18.0057
17.3012
16.596
15.8904
15.1846
14.4786
13.7726
13.0666
12.3605
11.6544
10.9482
10.242
9.53576
8.82948
8.12317
7.41684
6.7105
6.00415
5.29779
4.59142
3.88506
3.17868
2.47231
1.76594
1.05957
0.353187
26.2731
26.0631
25.7104
25.2514
24.7163
24.1276
23.5015
22.8496
22.1799
21.4979
20.8077
20.1119
19.4123
18.7102
18.0065
17.3017
16.5964
15.8906
15.1847
14.4787
13.7727
13.0666
12.3606
11.6544
10.9482
10.242
9.53578
8.82949
8.12318
7.41685
6.71051
6.00415
5.29779
4.59143
3.88506
3.17869
2.47231
1.76594
1.05956
0.353188
26.393
26.1436
25.7641
25.2871
24.7399
24.1432
23.5118
22.8563
22.1842
21.5007
20.8094
20.1129
19.4128
18.7104
18.0065
17.3016
16.5961
15.8904
15.1845
14.4785
13.7725
13.0665
12.3604
11.6543
10.9482
10.242
9.53574
8.82946
8.12316
7.41684
6.7105
6.00415
5.29779
4.59142
3.88506
3.17868
2.47231
1.76594
1.05956
0.353189
26.4438
26.145
25.7456
25.2632
24.717
24.1236
23.496
22.844
22.1748
21.4936
20.8042
20.1091
19.4101
18.7085
18.0052
17.3007
16.5955
15.89
15.1842
14.4783
13.7724
13.0664
12.3604
11.6543
10.9481
10.2419
9.5357
8.82943
8.12314
7.41682
6.71048
6.00414
5.29778
4.59142
3.88505
3.17868
2.47231
1.76594
1.05956
0.35319
26.5644
26.2112
25.7791
25.2785
24.7226
24.1243
23.4944
22.8415
22.1723
21.4913
20.8023
20.1075
19.4089
18.7075
18.0044
17.3001
16.5951
15.8897
15.184
14.4782
13.7723
13.0663
12.3603
11.6542
10.9481
10.2419
9.53568
8.82942
8.12312
7.41681
6.71047
6.00413
5.29777
4.59141
3.88505
3.17868
2.47231
1.76594
1.05956
0.353189
26.73
26.3178
25.8467
25.3206
24.7485
24.14
23.5037
22.8469
22.1752
21.4928
20.8029
20.1077
19.4088
18.7074
18.0042
17.2999
16.5949
15.8895
15.1839
14.4781
13.7722
13.0663
12.3603
11.6542
10.9481
10.2419
9.53568
8.82942
8.12312
7.41681
6.71047
6.00413
5.29777
4.59141
3.88505
3.17868
2.47231
1.76594
1.05956
0.353189
26.9139
26.4443
25.9328
25.3786
24.7871
24.1654
23.5202
22.8575
22.1819
21.497
20.8055
20.1093
19.4097
18.7079
18.0044
17.3
16.5948
15.8894
15.1837
14.478
13.7722
13.0663
12.3603
11.6542
10.9481
10.2419
9.53569
8.82943
8.12313
7.41681
6.71048
6.00413
5.29777
4.59141
3.88505
3.17868
2.47231
1.76593
1.05956
0.353189
27.0947
26.5736
26.0242
25.4425
24.8312
24.1955
23.5405
22.871
22.1908
21.5028
20.8092
20.1116
19.4112
18.7087
18.0049
17.3001
16.5949
15.8893
15.1837
14.478
13.7722
13.0663
12.3603
11.6543
10.9481
10.242
9.53572
8.82945
8.12314
7.41682
6.71048
6.00413
5.29778
4.59142
3.88505
3.17868
2.47231
1.76593
1.05956
0.353189
27.2559
26.6921
26.1101
25.5039
24.8745
24.2256
23.5612
22.885
22.2002
21.509
20.8132
20.1142
19.4129
18.7098
18.0055
17.3004
16.5949
15.8893
15.1836
14.4779
13.7722
13.0663
12.3604
11.6543
10.9482
10.242
9.53575
8.82947
8.12316
7.41683
6.71049
6.00414
5.29778
4.59142
3.88505
3.17868
2.47231
1.76593
1.05956
0.353189
27.3861
26.7894
26.1819
25.556
24.9118
24.2518
23.5794
22.8975
22.2086
21.5146
20.817
20.1167
19.4145
18.7108
18.0061
17.3007
16.595
15.8892
15.1836
14.4779
13.7722
13.0663
12.3604
11.6544
10.9482
10.242
9.53578
8.82949
8.12318
7.41685
6.7105
6.00415
5.29779
4.59142
3.88505
3.17868
2.47231
1.76593
1.05956
0.353189
27.477
26.8583
26.2332
25.5937
24.9389
24.2711
23.5929
22.9068
22.2149
21.5189
20.8198
20.1186
19.4158
18.7116
18.0065
17.3009
16.595
15.8892
15.1835
14.4779
13.7722
13.0664
12.3604
11.6544
10.9483
10.2421
9.5358
8.82951
8.12319
7.41686
6.71051
6.00415
5.29779
4.59142
3.88505
3.17868
2.47231
1.76593
1.05956
0.353189
27.5236
26.8938
26.2599
25.6133
24.9532
24.2813
23.6
22.9118
22.2183
21.5212
20.8214
20.1197
19.4165
18.7121
18.0068
17.301
16.5951
15.8892
15.1835
14.4779
13.7722
13.0664
12.3605
11.6544
10.9483
10.2421
9.53582
8.82952
8.1232
7.41687
6.71051
6.00416
5.29779
4.59142
3.88505
3.17868
2.47231
1.76593
1.05956
0.353188
27.5237
26.8939
26.2599
25.6133
24.9532
24.2813
23.6001
22.9118
22.2184
21.5212
20.8214
20.1197
19.4165
18.7121
18.0068
17.301
16.5951
15.8892
15.1835
14.4779
13.7722
13.0664
12.3605
11.6544
10.9483
10.2421
9.53582
8.82953
8.12321
7.41687
6.71052
6.00416
5.29779
4.59142
3.88505
3.17868
2.47231
1.76593
1.05956
0.353188
27.477
26.8583
26.2333
25.5937
24.9389
24.2711
23.5929
22.9069
22.215
21.5189
20.8199
20.1187
19.4159
18.7117
18.0066
17.301
16.5951
15.8893
15.1836
14.4779
13.7722
13.0664
12.3605
11.6544
10.9483
10.2421
9.53582
8.82952
8.1232
7.41687
6.71052
6.00416
5.29779
4.59142
3.88505
3.17868
2.47231
1.76593
1.05956
0.353188
27.3861
26.7895
26.182
25.5561
24.9118
24.2519
23.5795
22.8976
22.2087
21.5147
20.8171
20.1168
19.4146
18.711
18.0062
17.3008
16.5951
15.8893
15.1837
14.478
13.7723
13.0664
12.3605
11.6544
10.9483
10.2421
9.5358
8.82951
8.1232
7.41686
6.71051
6.00415
5.29779
4.59142
3.88505
3.17868
2.47231
1.76593
1.05956
0.353188
27.256
26.6922
26.1102
25.504
24.8746
24.2257
23.5613
22.8851
22.2003
21.5091
20.8134
20.1144
19.4131
18.71
18.0057
17.3006
16.5951
15.8894
15.1838
14.4781
13.7723
13.0664
12.3604
11.6544
10.9482
10.242
9.53578
8.8295
8.12318
7.41685
6.71051
6.00415
5.29779
4.59142
3.88505
3.17868
2.47231
1.76593
1.05956
0.353189
27.0947
26.5737
26.0243
25.4426
24.8313
24.1956
23.5406
22.8712
22.1909
21.5029
20.8093
20.1118
19.4114
18.709
18.0051
17.3004
16.5951
15.8895
15.1838
14.4781
13.7723
13.0664
12.3604
11.6543
10.9482
10.242
9.53576
8.82948
8.12317
7.41684
6.7105
6.00415
5.29779
4.59142
3.88505
3.17868
2.47231
1.76593
1.05956
0.353189
26.914
26.4444
25.9329
25.3787
24.7872
24.1655
23.5204
22.8577
22.1821
21.4972
20.8057
20.1095
19.4099
18.7081
18.0047
17.3002
16.5951
15.8896
15.1839
14.4782
13.7723
13.0664
12.3604
11.6543
10.9482
10.242
9.53574
8.82947
8.12316
7.41684
6.71049
6.00414
5.29778
4.59142
3.88505
3.17868
2.47231
1.76593
1.05956
0.353189
26.7301
26.3179
25.8468
25.3208
24.7486
24.1401
23.5038
22.847
22.1754
21.493
20.8031
20.1079
19.4091
18.7076
18.0045
17.3002
16.5952
15.8897
15.1841
14.4783
13.7724
13.0664
12.3604
11.6543
10.9482
10.242
9.53573
8.82946
8.12315
7.41683
6.71049
6.00414
5.29778
4.59142
3.88505
3.17868
2.47231
1.76593
1.05956
0.353189
26.5646
26.2113
25.7792
25.2786
24.7227
24.1244
23.4945
22.8417
22.1724
21.4915
20.8025
20.1077
19.4091
18.7078
18.0047
17.3004
16.5954
15.8899
15.1842
14.4784
13.7725
13.0665
12.3604
11.6543
10.9482
10.242
9.53574
8.82946
8.12316
7.41683
6.71049
6.00414
5.29778
4.59142
3.88505
3.17868
2.47231
1.76594
1.05956
0.353188
26.4439
26.1451
25.7457
25.2633
24.7171
24.1237
23.4961
22.8441
22.175
21.4938
20.8044
20.1093
19.4104
18.7088
18.0054
17.301
16.5958
15.8902
15.1844
14.4785
13.7726
13.0666
12.3605
11.6544
10.9482
10.242
9.53575
8.82947
8.12317
7.41684
6.7105
6.00415
5.29779
4.59142
3.88505
3.17868
2.47231
1.76594
1.05956
0.353188
26.3932
26.1437
25.7642
25.2872
24.74
24.1433
23.512
22.8565
22.1844
21.5009
20.8096
20.1131
19.4131
18.7107
18.0068
17.3019
16.5964
15.8906
15.1847
14.4787
13.7727
13.0666
12.3606
11.6544
10.9483
10.242
9.53579
8.8295
8.12319
7.41686
6.71051
6.00416
5.29779
4.59143
3.88506
3.17868
2.47231
1.76594
1.05956
0.353188
26.549
26.2551
25.8423
25.3413
24.7773
24.1688
23.5292
22.8681
22.1921
21.5059
20.8129
20.1152
19.4143
18.7114
18.0071
17.3019
16.5963
15.8904
15.1845
14.4785
13.7725
13.0665
12.3605
11.6544
10.9482
10.242
9.53576
8.82948
8.12317
7.41685
6.7105
6.00415
5.29779
4.59143
3.88506
3.17869
2.47231
1.76594
1.05957
0.35319
26.6057
26.253
25.8173
25.3105
24.748
24.1438
23.509
22.8523
22.1801
21.4969
20.8062
20.1103
19.4108
18.7089
18.0053
17.3007
16.5955
15.8899
15.1841
14.4783
13.7724
13.0664
12.3604
11.6543
10.9481
10.2419
9.53571
8.82944
8.12314
7.41682
6.71049
6.00414
5.29778
4.59142
3.88505
3.17868
2.47231
1.76594
1.05957
0.35319
26.73
26.3178
25.8467
25.3206
24.7485
24.14
23.5037
22.8469
22.1752
21.4928
20.8029
20.1077
19.4088
18.7074
18.0042
17.2999
16.5949
15.8895
15.1839
14.4781
13.7722
13.0663
12.3603
11.6542
10.9481
10.2419
9.53568
8.82942
8.12312
7.41681
6.71047
6.00413