# vtk DataFile Version 2.0
I need something to put here
ASCII

DATASET STRUCTURED_GRID
DIMENSIONS 41 21 21
POINTS 18081 float
0.000000 0.000000 0.000000
0.100000 0.000000 0.000000
0.200000 0.000000 0.000000
0.300000 0.000000 0.000000
0.400000 0.000000 0.000000
0.500000 0.000000 0.000000
0.600000 0.000000 0.000000
0.700000 0.000000 0.000000
0.800000 0.000000 0.000000
0.900000 0.000000 0.000000
1.000000 0.000000 0.000000
1.100000 0.000000 0.000000
1.200000 0.000000 0.000000
1.300000 0.000000 0.000000
1.400000 0.000000 0.000000
1.500000 0.000000 0.000000
1.600000 0.000000 0.000000
1.700000 0.000000 0.000000
1.800000 0.000000 0.000000
1.900000 0.000000 0.000000
2.000000 0.000000 0.000000
2.100000 0.000000 0.000000
2.200000 0.000000 0.000000
2.300000 0.000000 0.000000
2.400000 0.000000 0.000000
2.500000 0.000000 0.000000
2.600000 0.000000 0.000000
2.700000 0.000000 0.000000
2.800000 0.000000 0.000000
2.900000 0.000000 0.000000
3.000000 0.000000 0.000000
3.100000 0.000000 0.000000
3.200000 0.000000 0.000000
3.300000 0.000000 0.000000
3.400000 0.000000 0.000000
3.500000 0.000000 0.000000
3.600000 0.000000 0.000000
3.700000 0.000000 0.000000
3.800000 0.000000 0.000000
3.900000 0.000000 0.000000
4.000000 0.000000 0.000000
0.000000 0.100000 0.000000
0.100000 0.100000 0.000000
0.200000 0.100000 0.000000
0.300000 0.100000 0.000000
0.400000 0.100000 0.000000
0.500000 0.100000 0.000000
0.600000 0.100000 0.000000
0.700000 0.100000 0.000000
0.800000 0.100000 0.000000
0.900000 0.100000 0.000000
1.000000 0.100000 0.000000
1.100000 0.100000 0.000000
1.200000 0.100000 0.000000
1.300000 0.100000 0.000000
1.400000 0.100000 0.000000
1.500000 0.100000 0.000000
1.600000 0.100000 0.000000
1.700000 0.100000 0.000000
1.800000 0.100000 0.000000
1.900000 0.100000 0.000000
2.000000 0.100000 0.000000
2.100000 0.100000 0.000000
2.200000 0.100000 0.000000
2.300000 0.100000 0.000000
2.400000 0.100000 0.000000
2.500000 0.100000 0.000000
2.600000 0.100000 0.000000
2.700000 0.100000 0.000000
2.800000 0.100000 0.000000
2.900000 0.100000 0.000000
3.000000 0.100000 0.000000
3.100000 0.100000 0.000000
3.200000 0.100000 0.000000
3.300000 0.100000 0.000000
3.400000 0.100000 0.000000
3.500000 0.100000 0.000000
3.600000 0.100000 0.000000
3.700000 0.100000 0.000000
3.800000 0.100000 0.000000
3.900000 0.100000 0.000000
4.000000 0.100000 0.000000
0.000000 0.200000 0.000000
0.100000 0.200000 0.000000
0.200000 0.200000 0.000000
0.300000 0.200000 0.000000
0.400000 0.200000 0.000000
0.500000 0.200000 0.000000
0.600000 0.200000 0.000000
0.700000 0.200000 0.000000
0.800000 0.200000 0.000000
0.900000 0.200000 0.000000
1.000000 0.200000 0.000000
1.100000 0.200000 0.000000
1.200000 0.200000 0.000000
1.300000 0.200000 0.000000
1.400000 0.200000 0.000000
1.500000 0.200000 0.000000
1.600000 0.200000 0.000000
1.700000 0.200000 0.000000
1.800000 0.200000 0.000000
1.900000 0.200000 0.000000
2.000000 0.200000 0.000000
2.100000 0.200000 0.000000
2.200000 0.200000 0.000000
2.300000 0.200000 0.000000
2.400000 0.200000 0.000000
2.500000 0.200000 0.000000
2.600000 0.200000 0.000000
2.700000 0.200000 0.000000
2.800000 0.200000 0.000000
2.900000 0.200000 0.000000
3.000000 0.200000 0.000000
3.100000 0.200000 0.000000
3.200000 0.200000 0.000000
3.300000 0.200000 0.000000
3.400000 0.200000 0.000000
3.500000 0.200000 0.000000
3.600000 0.200000 0.000000
3.700000 0.200000 0.000000
3.800000 0.200000 0.000000
3.900000 0.200000 0.000000
4.000000 0.200000 0.000000
0.000000 0.300000 0.000000
0.100000 0.300000 0.000000
0.200000 0.300000 0.000000
0.300000 0.300000 0.000000
0.400000 0.300000 0.000000
0.500000 0.300000 0.000000
0.600000 0.300000 0.000000
0.700000 0.300000 0.000000
0.800000 0.300000 0.000000
0.900000 0.300000 0.000000
1.000000 0.300000 0.000000
1.100000 0.300000 0.000000
1.200000 0.300000 0.000000
1.300000 0.300000 0.000000
1.400000 0.300000 0.000000
1.500000 0.300000 0.000000
1.600000 0.300000 0.000000
1.700000 0.300000 0.000000
1.800000 0.300000 0.000000
1.900000 0.300000 0.000000
2.000000 0.300000 0.000000
2.100000 0.300000 0.000000
2.200000 0.300000 0.000000
2.300000 0.300000 0.000000
2.400000 0.300000 0.000000
2.500000 0.300000 0.000000
2.600000 0.300000 0.000000
2.700000 0.300000 0.000000
2.800000 0.300000 0.000000
2.900000 0.300000 0.000000
3.000000 0.300000 0.000000
3.100000 0.300000 0.000000
3.200000 0.300000 0.000000
3.300000 0.300000 0.000000
3.400000 0.300000 0.000000
3.500000 0.300000 0.000000
3.600000 0.300000 0.000000
3.700000 0.300000 0.000000
3.800000 0.300000 0.000000
3.900000 0.300000 0.000000
4.000000 0.300000 0.000000
0.000000 0.400000 0.000000
0.100000 0.400000 0.000000
0.200000 0.400000 0.000000
0.300000 0.400000 0.000000
0.400000 0.400000 0.000000
0.500000 0.400000 0.000000
0.600000 0.400000 0.000000
0.700000 0.400000 0.000000
0.800000 0.400000 0.000000
0.900000 0.400000 0.000000
1.000000 0.400000 0.000000
1.100000 0.400000 0.000000
1.200000 0.400000 0.000000
1.300000 0.400000 0.000000
1.400000 0.400000 0.000000
1.500000 0.400000 0.000000
1.600000 0.400000 0.000000
1.700000 0.400000 0.000000
1.800000 0.400000 0.000000
1.900000 0.400000 0.000000
2.000000 0.400000 0.000000
2.100000 0.400000 0.000000
2.200000 0.400000 0.000000
2.300000 0.400000 0.000000
2.400000 0.400000 0.000000
2.500000 0.400000 0.000000
2.600000 0.400000 0.000000
2.700000 0.400000 0.000000
2.800000 0.400000 0.000000
2.900000 0.400000 0.000000
3.000000 0.400000 0.000000
3.100000 0.400000 0.000000
3.200000 0.400000 0.000000
3.300000 0.400000 0.000000
3.400000 0.400000 0.000000
3.500000 0.400000 0.000000
3.600000 0.400000 0.000000
3.700000 0.400000 0.000000
3.800000 0.400000 0.000000
3.900000 0.400000 0.000000
4.000000 0.400000 0.000000
0.000000 0.500000 0.000000
0.100000 0.500000 0.000000
0.200000 0.500000 0.000000
0.300000 0.500000 0.000000
0.400000 0.500000 0.000000
0.500000 0.500000 0.000000
0.600000 0.500000 0.000000
0.700000 0.500000 0.000000
0.800000 0.500000 0.000000
0.900000 0.500000 0.000000
1.000000 0.500000 0.000000
1.100000 0.500000 0.000000
1.200000 0.500000 0.000000
1.300000 0.500000 0.000000
1.400000 0.500000 0.000000
1.500000 0.500000 0.000000
1.600000 0.500000 0.000000
1.700000 0.500000 0.000000
1.800000 0.500000 0.000000
1.900000 0.500000 0.000000
2.000000 0.500000 0.000000
2.100000 0.500000 0.000000
2.200000 0.500000 0.000000
2.300000 0.500000 0.000000
2.400000 0.500000 0.000000
2.500000 0.500000 0.000000
2.600000 0.500000 0.000000
2.700000 0.500000 0.000000
2.800000 0.500000 0.000000
2.900000 0.500000 0.000000
3.000000 0.500000 0.000000
3.100000 0.500000 0.000000
3.200000 0.500000 0.000000
3.300000 0.500000 0.000000
3.400000 0.500000 0.000000
3.500000 0.500000 0.000000
3.600000 0.500000 0.000000
3.700000 0.500000 0.000000
3.800000 0.500000 0.000000
3.900000 0.500000 0.000000
4.000000 0.500000 0.000000
0.000000 0.600000 0.000000
0.100000 0.600000 0.000000
0.200000 0.600000 0.000000
0.300000 0.600000 0.000000
0.400000 0.600000 0.000000
0.500000 0.600000 0.000000
0.600000 0.600000 0.000000
0.700000 0.600000 0.000000
0.800000 0.600000 0.000000
0.900000 0.600000 0.000000
1.000000 0.600000 0.000000
1.100000 0.600000 0.000000
1.200000 0.600000 0.000000
1.300000 0.600000 0.000000
1.400000 0.600000 0.000000
1.500000 0.600000 0.000000
1.600000 0.600000 0.000000
1.700000 0.600000 0.000000
1.800000 0.600000 0.000000
1.900000 0.600000 0.000000
2.000000 0.600000 0.000000
2.100000 0.600000 0.000000
2.200000 0.600000 0.000000
2.300000 0.600000 0.000000
2.400000 0.600000 0.000000
2.500000 0.600000 0.000000
2.600000 0.600000 0.000000
2.700000 0.600000 0.000000
2.800000 0.600000 0.000000
2.900000 0.600000 0.000000
3.000000 0.600000 0.000000
3.100000 0.600000 0.000000
3.200000 0.600000 0.000000
3.300000 0.600000 0.000000
3.400000 0.600000 0.000000
3.500000 0.600000 0.000000
3.600000 0.600000 0.000000
3.700000 0.600000 0.000000
3.800000 0.600000 0.000000
3.900000 0.600000 0.000000
4.000000 0.600000 0.000000
0.000000 0.700000 0.000000
0.100000 0.700000 0.000000
0.200000 0.700000 0.000000
0.300000 0.700000 0.000000
0.400000 0.700000 0.000000
0.500000 0.700000 0.000000
0.600000 0.700000 0.000000
0.700000 0.700000 0.000000
0.800000 0.700000 0.000000
0.900000 0.700000 0.000000
1.000000 0.700000 0.000000
1.100000 0.700000 0.000000
1.200000 0.700000 0.000000
1.300000 0.700000 0.000000
1.400000 0.700000 0.000000
1.500000 0.700000 0.000000
1.600000 0.700000 0.000000
1.700000 0.700000 0.000000
1.800000 0.700000 0.000000
1.900000 0.700000 0.000000
2.000000 0.700000 0.000000
2.100000 0.700000 0.000000
2.200000 0.700000 0.000000
2.300000 0.700000 0.000000
2.400000 0.700000 0.000000
2.500000 0.700000 0.000000
2.600000 0.700000 0.000000
2.700000 0.700000 0.000000
2.800000 0.700000 0.000000
2.900000 0.700000 0.000000
3.000000 0.700000 0.000000
3.100000 0.700000 0.000000
3.200000 0.700000 0.000000
3.300000 0.700000 0.000000
3.400000 0.700000 0.000000
3.500000 0.700000 0.000000
3.600000 0.700000 0.000000
3.700000 0.700000 0.000000
3.800000 0.700000 0.000000
3.900000 0.700000 0.000000
4.000000 0.700000 0.000000
0.000000 0.800000 0.000000
0.100000 0.800000 0.000000
0.200000 0.800000 0.000000
0.300000 0.800000 0.000000
0.400000 0.800000 0.000000
0.500000 0.800000 0.000000
0.600000 0.800000 0.000000
0.700000 0.800000 0.000000
0.800000 0.800000 0.000000
0.900000 0.800000 0.000000
1.000000 0.800000 0.000000
1.100000 0.800000 0.000000
1.200000 0.800000 0.000000
1.300000 0.800000 0.000000
1.400000 0.800000 0.000000
1.500000 0.800000 0.000000
1.600000 0.800000 0.000000
1.700000 0.800000 0.000000
1.800000 0.800000 0.000000
1.900000 0.800000 0.000000
2.000000 0.800000 0.000000
2.100000 0.800000 0.000000
2.200000 0.800000 0.000000
2.300000 0.800000 0.000000
2.400000 0.800000 0.000000
2.500000 0.800000 0.000000
2.600000 0.800000 0.000000
2.700000 0.800000 0.000000
2.800000 0.800000 0.000000
2.900000 0.800000 0.000000
3.000000 0.800000 0.000000
3.100000 0.800000 0.000000
3.200000 0.800000 0.000000
3.300000 0.800000 0.000000
3.400000 0.800000 0.000000
3.500000 0.800000 0.000000
3.600000 0.800000 0.000000
[...]
CELL_DATA 16000
SCALARS pressure float 1
LOOKUP_TABLE default
26.2147
26.032
25.6939
25.2428
24.7119
24.1255
23.5007
22.8494
22.18
21.4982
20.808
20.1122
19.4126
18.7104
18.0067
17.3019
16.5965
15.8907
15.1848
14.4788
13.7728
13.0667
12.3606
11.6545
10.9483
10.2421
9.5358
8.82951
8.12319
7.41686
6.71052
6.00416
5.2978
4.59143
3.88506
3.17869
2.47231
1.76594
1.05956
0.353188
26.2732
26.0632
25.7106
25.2516
24.7165
24.1277
23.5017
22.8498
22.18
21.4981
20.8078
20.112
19.4124
18.7103
18.0066
17.3018
16.5964
15.8907
15.1848
14.4788
13.7728
13.0667
12.3606
11.6545
10.9483
10.2421
9.5358
8.82951
8.12319
7.41686
6.71051
6.00416
5.2978
4.59143
3.88506
3.17869
2.47231
1.76594
1.05956
0.353188
26.3933
26.1439
25.7644
25.2874
24.7402
24.1435
23.5121
22.8566
22.1845
21.501
20.8097
20.1132
19.4132
18.7108
18.0068
17.3019
16.5965
15.8907
15.1848
14.4788
13.7728
13.0667
12.3606
11.6545
10.9483
10.2421
9.53581
8.82952
8.1232
7.41687
6.71052
6.00416
5.2978
4.59143
3.88506
3.17869
2.47231
1.76594
1.05956
0.353189
26.5493
26.2554
25.8426
25.3416
24.7775
24.169
23.5295
22.8684
22.1924
21.5063
20.8132
20.1155
19.4147
18.7117
18.0074
17.3022
16.5966
15.8907
15.1848
14.4788
13.7728
13.0667
12.3606
11.6545
10.9483
10.2421
9.53583
8.82953
8.12321
7.41688
6.71052
6.00416
5.2978
4.59143
3.88506
3.17869
2.47231
1.76594
1.05956
0.353189
26.7189
26.3816
25.9339
25.4065
24.8231
24.2008
23.5514
22.8834
22.2026
21.5131
20.8178
20.1186
19.4167
18.713
18.0082
17.3027
16.5968
15.8908
15.1848
14.4788
13.7728
13.0668
12.3607
11.6546
10.9484
10.2421
9.53587
8.82956
8.12323
7.41689
6.71053
6.00417
5.2978
4.59143
3.88506
3.17869
2.47231
1.76594
1.05956
0.35319
26.8843
26.5081
26.0275
25.4743
24.8715
24.2348
23.5751
22.8998
22.2138
21.5207
20.8229
20.122
19.4189
18.7145
18.0091
17.3032
16.597
15.8909
15.1848
14.4788
13.7728
13.0668
12.3607
11.6546
10.9484
10.2422
9.53591
8.82959
8.12326
7.41691
6.71055
6.00418
5.29781
4.59144
3.88506
3.17869
2.47231
1.76594
1.05957
0.35319
27.0317
26.6232
26.1141
25.5379
24.9174
24.2675
23.5981
22.9157
22.2248
21.5282
20.828
20.1254
19.4212
18.716
18.01
17.3037
16.5973
15.8909
15.1848
14.4788
13.7728
13.0668
12.3608
11.6547
10.9485
10.2422
9.53595
8.82963
8.12328
7.41692
6.71056
6.00419
5.29782
4.59144
3.88507
3.17869
2.47232
1.76594
1.05957
0.353191
27.1506
26.7174
26.1859
25.5912
24.9562
24.2953
23.6178
22.9294
22.2342
21.5347
20.8324
20.1284
19.4232
18.7173
18.0108
17.3041
16.5974
15.891
15.1848
14.4788
13.7728
13.0669
12.3609
11.6548
10.9486
10.2423
9.53599
8.82966
8.1233
7.41694
6.71057
6.0042
5.29782
4.59144
3.88507
3.17869
2.47232
1.76594
1.05957
0.353192
27.2338
26.7839
26.237
25.6295
24.9843
24.3156
23.6321
22.9395
22.2412
21.5395
20.8357
20.1306
19.4247
18.7183
18.0114
17.3044
16.5975
15.891
15.1847
14.4788
13.7729
13.0669
12.3609
11.6548
10.9486
10.2423
9.53602
8.82968
8.12332
7.41695
6.71058
6.0042
5.29782
4.59145
3.88507
3.17869
2.47232
1.76594
1.05957
0.353193
27.2765
26.8182
26.2636
25.6494
24.999
24.3262
23.6397
22.9448
22.2449
21.542
20.8374
20.1318
19.4255
18.7188
18.0117
17.3046
16.5976
15.891
15.1847
14.4787
13.7729
13.0669
12.3609
11.6548
10.9486
10.2424
9.53604
8.82969
8.12333
7.41696
6.71058
6.0042
5.29783
4.59145
3.88507
3.17869
2.47232
1.76594
1.05957
0.353193
27.2765
26.8182
26.2636
25.6495
24.999
24.3262
23.6397
22.9448
22.2449
21.542
20.8374
20.1318
19.4256
18.7188
18.0117
17.3046
16.5976
15.891
15.1847
14.4787
13.7729
13.0669
12.3609
11.6548
10.9486
10.2423
9.53603
8.82969
8.12333
7.41696
6.71058
6.0042
5.29782
4.59145
3.88507
3.17869
2.47232
1.76594
1.05957
0.353194
27.2338
26.7839
26.237
25.6295
24.9843
24.3156
23.6321
22.9395
22.2412
21.5395
20.8357
20.1306
19.4248
18.7183
18.0114
17.3044
16.5976
15.891
15.1847
14.4787
13.7728
13.0669
12.3609
11.6548
10.9486
10.2423
9.53602
8.82968
8.12332
7.41695
6.71058
6.0042
5.29782
4.59145
3.88507
3.17869
2.47232
1.76594
1.05957
0.353195
27.1506
26.7174
26.1859
25.5913
24.9563
24.2954
23.6178
22.9295
22.2343
21.5347
20.8325
20.1284
19.4233
18.7173
18.0108
17.3041
16.5974
15.891
15.1848
14.4788
13.7728
13.0669
12.3609
11.6547
10.9485
10.2423
9.53598
8.82965
8.1233
7.41694
6.71057
6.00419
5.29782
4.59144
3.88507
3.17869
2.47232
1.76594
1.05957
0.353195
27.0317
26.6232
26.1141
25.538
24.9175
24.2676
23.5982
22.9158
22.2248
21.5283
20.8281
20.1255
19.4213
18.716
18.0101
17.3037
16.5973
15.8909
15.1848
14.4788
13.7728
13.0668
12.3608
11.6547
10.9485
10.2422
9.53594
8.82962
8.12327
7.41692
6.71055
6.00418
5.29781
4.59144
3.88507
3.17869
2.47232
1.76594
1.05957
0.353196
26.8844
26.5082
26.0275
25.4743
24.8715
24.2349
23.5752
22.8998
22.2139
21.5208
20.823
20.1221
19.419
18.7146
18.0092
17.3032
16.5971
15.8909
15.1848
14.4788
13.7728
13.0668
12.3607
11.6546
10.9484
10.2422
9.53589
8.82958
8.12325
7.4169
6.71054
6.00418
5.29781
4.59144
3.88506
3.17869
2.47232
1.76594
1.05957
0.353196
26.719
26.3816
25.9339
25.4065
24.8232
24.2008
23.5514
22.8834
22.2027
21.5132
20.8179
20.1186
19.4167
18.7131
18.0083
17.3027
16.5968
15.8908
15.1848
14.4788
13.7728
13.0667
12.3607
11.6545
10.9484
10.2421
9.53585
8.82955
8.12322
7.41688
6.71053
6.00417
5.2978
4.59143
3.88506
3.17869
2.47231
1.76594
1.05957
0.353195
26.5494
26.2555
25.8427
25.3417
24.7776
24.1691
23.5296
22.8685
22.1925
21.5063
20.8133
20.1156
19.4147
18.7118
18.0075
17.3023
16.5966
15.8908
15.1848
14.4788
13.7727
13.0667
12.3606
11.6545
10.9483
10.2421
9.53582
8.82952
8.1232
7.41687
6.71052
6.00416
5.2978
4.59143
3.88506
3.17869
2.47231
1.76594
1.05957
0.353194
26.3934
26.144
25.7645
25.2874
24.7403
24.1436
23.5122
22.8567
22.1846
21.5011
20.8098
20.1133
19.4132
18.7108
18.0069
17.302
16.5965
15.8907
15.1848
14.4788
13.7727
13.0667
12.3606
11.6545
10.9483
10.2421
9.53579
8.8295
8.12319
7.41686
6.71051
6.00416
5.29779
4.59143
3.88506
3.17869
2.47231
1.76594
1.05957
0.353193
26.2733
26.0633
25.7107
25.2517
24.7165
24.1278
23.5018
22.8498
22.1801
21.4982
20.8079
20.1121
19.4125
18.7104
18.0066
17.3019
16.5965
15.8907
15.1848
14.4788
13.7728
13.0667
12.3606
11.6544
10.9483
10.242
9.53578
8.8295
8.12318
7.41685
6.71051
6.00416
5.29779
4.59143
3.88506
3.17869
2.47231
1.76594
1.05957
0.353191
26.2147
26.032
25.694
25.2428
24.7119
24.1255
23.5007
22.8495
22.1801
21.4983
20.8081
20.1123
19.4127
18.7105
18.0068
17.3019
16.5965
15.8908
15.1848
14.4788
13.7728
13.0667
12.3606
11.6544
10.9483
10.242
9.53579
8.8295
8.12319
7.41686
6.71051
6.00416
5.29779
4.59143
3.88506
3.17869
2.47231
1.76594
1.05956
0.35319
26.2732
26.0632
25.7106
25.2516
24.7165
24.1277
23.5017
22.8498
22.18
21.4981
20.8078
20.112
19.4124
18.7103
18.0066
17.3018
16.5964
15.8907
15.1848
14.4788
13.7728
13.0667
12.3606
11.6545
10.9483
10.2421
9.5358
8.82951
8.12319
7.41686
6.71051
6.00416
5.2978
4.59143
3.88506
3.17869
2.47231
1.76594
1.05956
0.353188
26.3239
26.0742
25.7046
25.2399
24.7041
24.1168
23.4926
22.8426
22.1745
21.4939
20.8048
20.1097
19.4108
18.7091
18.0058
17.3012
16.596
15.8904
15.1846
14.4787
13.7727
13.0666
12.3606
11.6544
10.9482
10.242
9.53578
8.82949
8.12318
7.41685
6.71051
6.00415
5.29779
4.59142
3.88506
3.17868
2.47231
1.76594
1.05956
0.353188
26.4441
26.1453
25.7459
25.2635
24.7173
24.1239
23.4962
22.8443
22.1751
21.494
20.8045
20.1094
19.4104
18.7088
18.0055
17.301
16.5958
15.8903
15.1845
14.4786
13.7726
13.0666
12.3605
11.6544
10.9482
10.242
9.53577
8.82949
8.12318
7.41685
6.71051
6.00415
5.29779
4.59142
3.88505
3.17868
2.47231
1.76594
1.05956
0.353188
26.6059
26.2533
25.8176
25.3108
24.7483
24.144
23.5093
22.8526
22.1804
21.4972
20.8065
20.1106
19.4111
18.7092
18.0057
17.3011
16.5958
15.8902
15.1844
14.4785
13.7726
13.0666
12.3605
11.6544
10.9482
10.242
9.53578
8.8295
8.12318
7.41685
6.71051
6.00415
5.29779
4.59142
3.88505
3.17868
2.47231
1.76594
1.05956
0.353188
26.7839
26.3788
25.9055
25.3717
24.7901
24.1724
23.5284
22.8653
22.1888
21.5028
20.8101
20.1129
19.4126
18.7101
18.0062
17.3013
16.5959
15.8902
15.1844
14.4785
13.7726
13.0666
12.3605
11.6544
10.9483
10.2421
9.5358
8.82951
8.1232
7.41686
6.71051
6.00416
5.29779
4.59143
3.88506
3.17868
2.47231
1.76593
1.05956
0.353187
26.9578
26.506
25.9973
25.4371
24.8361
24.2044
23.5504
22.8803
22.1989
21.5095
20.8146
20.1158
19.4145
18.7113
18.0069
17.3017
16.5961
15.8902
15.1844
14.4785
13.7726
13.0666
12.3606
11.6545
10.9483
10.2421
9.53583
8.82953
8.12321
7.41687
6.71052
6.00416
5.2978
4.59143
3.88506
3.17868
2.47231
1.76593
1.05956
0.353187
27.1126
26.6221
26.083
25.4993
24.8805
24.2358
23.5722
22.8953
22.2091
21.5164
20.8192
20.1189
19.4165
18.7126
18.0076
17.3021
16.5962
15.8903
15.1844
14.4785
13.7726
13.0666
12.3606
11.6545
10.9484
10.2421
9.53586
8.82956
8.12323
7.41689
6.71053
6.00417
5.2978
4.59143
3.88506
3.17868
2.47231
1.76593
1.05956
0.353187
27.2373
26.7172
26.1543
25.5517
24.9184
24.2628
23.5912
22.9085
22.2181
21.5225
20.8233
20.1216
19.4183
18.7137
18.0083
17.3025
16.5964
15.8903
15.1843
14.4785
13.7726
13.0667
12.3607
11.6546
10.9484
10.2422
9.53589
8.82958
8.12325
7.4169
6.71054
6.00417
5.2978
4.59143
3.88506
3.17868
2.47231
1.76593
1.05956
0.353187
27.3245
26.7844
26.2051
25.5894
24.9459
24.2825
23.6051
22.9182
22.2248
21.527
20.8264
20.1237
19.4197
18.7146
18.0089
17.3027
16.5965
15.8903
15.1843
14.4785
13.7726
13.0667
12.3607
11.6546
10.9484
10.2422
9.53592
8.8296
8.12326
7.41691
6.71055
6.00418
5.29781
4.59143
3.88506
3.17868
2.47231
1.76593
1.05956
0.353187
27.3692
26.8192
26.2316
25.6091
24.9604
24.2929
23.6125
22.9233
22.2284
21.5295
20.828
20.1248
19.4204
18.7151
18.0092
17.3029
16.5965
15.8903
15.1843
14.4784
13.7726
13.0667
12.3607
11.6546
10.9484
10.2422
9.53593
8.82961
8.12327
7.41691
6.71055
6.00418
5.29781
4.59143
3.88506
3.17868
2.47231
1.76593
1.05956
0.353187
27.3692
26.8192
26.2316
25.6092
24.9604
24.2929
23.6125
22.9234
22.2284
21.5295
20.828
20.1248
19.4204
18.7151
18.0092
17.3029
16.5966
15.8903
15.1843
14.4784
13.7726
13.0667
12.3607
11.6546
10.9484
10.2422
9.53593
8.82961
8.12327
7.41691
6.71055
6.00418
5.29781
4.59143
3.88506
3.17868
2.47231
1.76593
1.05956
0.353187
27.3245
26.7845
26.2052
25.5895
24.946
24.2825
23.6051
22.9182
22.2248
21.5271
20.8264
20.1238
19.4197
18.7147
18.0089
17.3028
16.5965
15.8903
15.1843
14.4784
13.7726
13.0667
12.3607
11.6546
10.9484
10.2422
9.53591
8.8296
8.12326
7.41691
6.71054
6.00418
5.29781
4.59143
3.88506
3.17868
2.47231
1.76593
1.05956
0.353187
27.2374
26.7173
26.1543
25.5517
24.9185
24.2628
23.5912
22.9085
22.2182
21.5225
20.8233
20.1217
19.4184
18.7138
18.0084
17.3025
16.5964
15.8903
15.1843
14.4785
13.7726
13.0667
12.3606
11.6546
10.9484
10.2422
9.53588
8.82958
8.12324
7.41689
6.71054
6.00417
5.2978
4.59143
3.88506
3.17868
2.47231
1.76593
1.05956
0.353187
27.1126
26.6221
26.083
25.4993
24.8806
24.2358
23.5723
22.8954
22.2092
21.5164
20.8192
20.119
19.4165
18.7126
18.0077
17.3021
16.5962
15.8903
15.1844
14.4785
13.7726
13.0666
12.3606
11.6545
10.9483
10.2421
9.53585
8.82955
8.12322
7.41688
6.71053
6.00416
5.2978
4.59143
3.88506
3.17868
2.47231
1.76593
1.05956
0.353188
26.9578
26.5061
25.9974
25.4372
24.8361
24.2045
23.5505
22.8804
22.1989
21.5095
20.8146
20.1159
19.4145
18.7114
18.0069
17.3017
16.5961
15.8903
15.1844
14.4785
13.7726
13.0666
12.3606
11.6545
10.9483
10.2421
9.53582
8.82952
8.1232
7.41687
6.71052
6.00416
5.29779
4.59142
3.88505
3.17868
2.47231
1.76593
1.05956
0.353188
26.7839
26.3789
25.9055
25.3717
24.7901
24.1725
23.5285
22.8654
22.1889
21.5028
20.8102
20.113
19.4127
18.7102
18.0062
17.3014
16.5959
15.8902
15.1844
14.4785
13.7726
13.0666
12.3605
11.6544
10.9483
10.242
9.53579
8.8295
8.12319
7.41685
6.71051
6.00415
5.29779
4.59142
3.88505
3.17868
2.47231
1.76593
1.05956
0.353189
26.606
26.2533
25.8176
25.3108
24.7484
24.1441
23.5093
22.8527
22.1804
21.4973
20.8066
20.1107
19.4112
18.7093
18.0057
17.3011
16.5959
15.8902
15.1844
14.4785
13.7726
13.0666
12.3605
11.6544
10.9482
10.242
9.53577
8.82948
8.12317
7.41685
6.7105
6.00415
5.29779
4.59142
3.88505
3.17868
2.47231
1.76593
1.05956
0.35319
26.4441
26.1454
25.7459
25.2636
24.7174
24.1239
23.4963
22.8443
22.1752
21.494
20.8046
20.1095
19.4105
18.7089
18.0055
17.3011
16.5959
15.8903
15.1845
14.4786
13.7726
13.0666
12.3605
11.6544
10.9482
10.242
9.53576
8.82948
8.12317
7.41684
6.7105
6.00415
5.29779
4.59142
3.88505
3.17868
2.47231
1.76593
1.05956
0.35319
26.324
26.0743
25.7047
25.24
24.7042
24.1168
23.4927
22.8426
22.1746
21.494
20.8048
20.1098
19.4109
18.7092
18.0058
17.3013
16.5961
15.8905
15.1846
14.4787
13.7727
13.0666
12.3605
11.6544
10.9482
10.242
9.53576
8.82948
8.12317
7.41685
6.7105
6.00415
5.29779
4.59142
3.88506
3.17868
2.47231
1.76594
1.05956
0.35319
26.2733
26.0633
25.7107
25.2517
24.7165
24.1278
23.5018
22.8498
22.1801
21.4982
20.8079
20.1121
19.4125
18.7104
18.0066
17.3019
16.5964
15.8907
15.1848
14.4788
13.7728
13.0667
12.3606
11.6544
10.9483
10.242
9.53578
8.8295
8.12319
7.41685
6.71051
6.00416
5.29779
4.59143
3.88506
3.17869
2.47231
1.76594
1.05956
0.353189
26.3933
26.1439
25.7644
25.2874
24.7402
24.1435
23.5121
22.8566
22.1845
21.501
20.8097
20.1132
19.4132
18.7108
18.0068
17.3019
16.5965
15.8907
15.1848
14.4788
13.7728
13.0667
12.3606
11.6545
10.9483
10.2421
9.53581
8.82952
8.1232
7.41687
6.71052
6.00416
5.2978
4.59143
3.88506
3.17869
2.47231
1.76594
1.05956
0.353189
26.4441
26.1453
25.7459
25.2635
24.7173
24.1239
23.4962
22.8443
22.1751
21.494
20.8045
20.1094
19.4104
18.7088
18.0055
17.301
16.5958
15.8903
15.1845
14.4786
13.7726
13.0666
12.3605
11.6544
10.9482
10.242
9.53577
8.82949
8.12318
7.41685
6.71051
6.00415
5.29779
4.59142
3.88505
3.17868
2.47231
1.76594
1.05956
0.353188
26.5647
26.2115
25.7794
25.2787
24.7229
24.1245
23.4947
22.8418
22.1726
21.4916
20.8026
20.1078
19.4092
18.7079
18.0048
17.3005
16.5954
15.89
15.1843
14.4784
13.7725
13.0665
12.3605
11.6544
10.9482
10.242
9.53576
8.82947
8.12317
7.41684
6.7105
6.00415
5.29779
4.59142
3.88505
3.17868
2.47231
1.76594
1.05956
0.353188
26.7303
26.3181
25.8469
25.3209
24.7488
24.1402
23.504
22.8472
22.1755
21.4931
20.8032
20.108
19.4092
18.7077
18.0046
17.3002
16.5952
15.8898
15.1841
14.4783
13.7724
13.0665
12.3605
11.6544
10.9482
10.242
9.53575
8.82947
8.12317
7.41684
6.7105
6.00415
5.29779
4.59142
3.88505
3.17868
2.47231
1.76594
1.05956
0.353188
26.9142
26.4446
25.933
25.3789
24.7874
24.1657
23.5205
22.8578
22.1822
21.4973
20.8058
20.1096
19.41
18.7082
18.0048
17.3003
16.5952
15.8897
15.184
14.4783
13.7724
13.0665
12.3605
11.6544
10.9482
10.242
9.53576
8.82948
8.12317
7.41684
6.7105
6.00415
5.29779
4.59142
3.88505
3.17868
2.47231
1.76594
1.05956
0.353188
27.0949
26.5739
26.0245
25.4428
24.8315
24.1958
23.5408
22.8713
22.1911
21.5031
20.8095
20.1119
19.4115
18.7091
18.0052
17.3005
16.5952
15.8896
15.1839
14.4782
13.7724
13.0665
12.3605
11.6544
10.9482
10.242
9.53579
8.8295
8.12318
7.41685
6.71051
6.00415
5.29779
4.59142
3.88505
3.17868
2.47231
1.76594
1.05956
0.353188
27.2562
26.6924
26.1104
25.5042
24.8748
24.2259
23.5615
22.8853
22.2005
21.5093
20.8135
20.1146
19.4132
18.7101
18.0058
17.3007
16.5952
15.8896
15.1839
14.4782
13.7724
13.0665
12.3605
11.6544
10.9483
10.2421
9.53581
8.82952
8.1232
7.41686
6.71051
6.00416
5.29779
4.59142
3.88505
3.17868
2.47231
1.76594
1.05956
0.353188
27.3864
26.7897
26.1822
25.5563
24.912
24.2521
23.5797
22.8978
22.2089
21.5149
20.8173
20.117
19.4148
18.7111
18.0064
17.301
16.5953
15.8895
15.1838
14.4781
13.7724
13.0665
12.3605
11.6545
10.9483
10.2421
9.53583
8.82954
8.12321
7.41687
6.71052
6.00416
5.29779
4.59143
3.88506
3.17868
2.47231
1.76594
1.05956
0.353188
27.4773
26.8585
26.2335
25.5939
24.9392
24.2714
23.5932
22.9071
22.2152
21.5192
20.8201
20.1189
19.4161
18.712
18.0069
17.3012
16.5953
15.8895
15.1838
14.4781
13.7724
13.0665
12.3606
11.6545
10.9483
10.2421
9.53585
8.82955
8.12322
7.41688
6.71052
6.00416
5.2978
4.59143
3.88506
3.17868
2.47231
1.76594
1.05956
0.353187
27.5239
26.8941
26.2602
25.6136
24.9534
24.2815
23.6003
22.9121
22.2186
21.5215
20.8217
20.12
19.4168
18.7124
18.0071
17.3013
16.5953
15.8895
15.1838
14.4781
13.7724
13.0666
12.3606
11.6545
10.9484
10.2421
9.53586
8.82956
8.12323
7.41688
6.71053
6.00416
5.2978
4.59143
3.88506
3.17868
2.47231
1.76594
1.05956
0.353187
27.5239
26.8941
26.2602
25.6136
24.9534
24.2815
23.6003
22.9121
22.2186
21.5215
20.8217
20.12
19.4168
18.7124
18.0071
17.3013
16.5954
15.8895
15.1838
14.4781
13.7724
13.0665
12.3606
11.6545
10.9484
10.2421
9.53586
8.82956
8.12323
7.41688
6.71053
6.00416
5.2978
4.59143
3.88506
3.17868
2.47231
1.76594
1.05956
0.353187
27.4773
26.8586
26.2335
25.5939
24.9392
24.2714
23.5932
22.9071
22.2153
21.5192
20.8202
20.119
19.4161
18.712
18.0069
17.3012
16.5953
15.8895
15.1838
14.4781
13.7724
13.0665
12.3606
11.6545
10.9483
10.2421
9.53585
8.82955
8.12322
7.41688
6.71052
6.00416
5.2978
4.59143
3.88506
3.17868
2.47231
1.76594
1.05956
0.353187
27.3864
26.7898
26.1822
25.5563
24.9121
24.2521
23.5797
22.8978
22.209
21.515
20.8173
20.1171
19.4149
18.7112
18.0064
17.301
16.5953
15.8895
15.1838
14.4781
13.7724
13.0665
12.3605
11.6545
10.9483
10.2421
9.53583
8.82953
8.12321
7.41687
6.71052
6.00416
5.29779
4.59142
3.88505
3.17868
2.47231
1.76594
1.05956
0.353187
27.2563
26.6924
26.1105
25.5043
24.8749
24.2259
23.5615
22.8854
22.2005
21.5093
20.8136
20.1146
19.4133
18.7102
18.0059
17.3008
16.5953
15.8896
15.1839
14.4782
13.7724
13.0665
12.3605
11.6544
10.9483
10.2421
9.5358
8.82951
8.12319
7.41686
6.71051
6.00415
5.29779
4.59142
3.88505
3.17868
2.47231
1.76594
1.05956
0.353188
27.095
26.5739
26.0246
25.4428
24.8316
24.1958
23.5409
22.8714
22.1912
21.5032
20.8096
20.112
19.4116
18.7091
18.0053
17.3005
16.5952
15.8896
15.184
14.4782
13.7724
13.0665
12.3605
11.6544
10.9482
10.242
9.53577
8.82949
8.12318
7.41685
6.7105
6.00415
5.29779
4.59142
3.88505
3.17868
2.47231
1.76594
1.05956
0.353188
26.9143
26.4446
25.9331
25.379
24.7875
24.1657
23.5206
22.8579
22.1823
21.4974
20.8059
20.1096
19.4101
18.7083
18.0048
17.3003
16.5952
15.8897
15.184
14.4783
13.7724
13.0665
12.3604
11.6544
10.9482
10.242
9.53575
8.82947
8.12316
7.41684
6.7105
6.00414
5.29778
4.59142
3.88505
3.17868
2.47231
1.76594
1.05956
0.353188
26.7303
26.3181
25.847
25.321
24.7489
24.1403
23.504
22.8473
22.1756
21.4932
20.8033
20.1081
19.4092
18.7078
18.0046
17.3003
16.5953
15.8898
15.1841
14.4783
13.7724
13.0665
12.3604
11.6543
10.9482
10.242
9.53574
8.82946
8.12316
7.41683
6.71049
6.00414
5.29778
4.59142
3.88505
3.17868
2.47231
1.76594
1.05956
0.353188
26.5648
26.2115
25.7794
25.2788
24.7229
24.1246
23.4947
22.8419
22.1726
21.4917
20.8027
20.1079
19.4093
18.7079
18.0048
17.3005
16.5955
15.89
15.1843
14.4784
13.7725
13.0665
12.3605
11.6544
10.9482
10.242
9.53574
8.82946
8.12316
7.41683
6.71049
6.00414
5.29778
4.59142
3.88505
3.17868
2.47231
1.76594
1.05956
0.353188
26.4441
26.1454
25.7459
25.2636
24.7174
24.1239
23.4963
22.8443
22.1752
21.494
20.8046
20.1095
19.4105
18.7089
18.0056
17.3011
16.5959
15.8903
15.1845
14.4786
13.7726
13.0666
12.3605
11.6544
10.9482
10.242
9.53576
8.82948
8.12317
7.41684
6.7105
6.00415
5.29779
4.59142
3.88505
3.17868
2.47231
1.76594
1.05956
0.353189
26.3934
26.144
25.7645
25.2874
24.7403
24.1436
23.5122
22.8567
22.1846
21.5011
20.8098
20.1133
19.4132
18.7108
18.0069
17.302
16.5965
15.8907
15.1848
14.4788
13.7727
13.0667
12.3606
11.6545
10.9483
10.2421
9.5358
8.82951
8.12319
7.41686
6.71051
6.00416
5.2978
4.59143
3.88506
3.17869
2.47231
1.76594
1.05956
0.353189
26.5493
26.2554
25.8426
25.3416
24.7775
24.169
23.5295
22.8684
22.1924
21.5063
20.8132
20.1155
19.4147
18.7117
18.0074
17.3022
16.5966
15.8907
15.1848
14.4788
13.7728
13.0667
12.3606
11.6545
10.9483
10.2421
9.53583
8.82953
8.12321
7.41688
6.71052
6.00416
5.2978
4.59143
3.88506
3.17869
2.47231
1.76594
1.05956
0.353189
26.6059
26.2533
25.8176
25.3108
24.7483
24.144
23.5093
22.8526
22.1804
21.4972
20.8065
20.1106
19.4111
18.7092
18.0057
17.3011
16.5958
15.8902
15.1844
14.4785
13.7726
13.0666
12.3605
11.6544
10.9482
10.242
9.53578
8.8295
8.12318
7.41685
6.71051
6.00415
5.29779
4.59142
3.88505
3.17868
2.47231
1.76594
1.05956
0.353188
26.7303
26.3181
25.8469
25.3209
24.7488
24.1402
23.504
22.8472
22.1755
21.4931
20.8032
20.108
19.4092
18.7077
18.0046
17.3002
16.5952
15.8898
15.1841
14.4783
13.7724
13.0665
12.3605
11.6544
10.9482
10.242
9.53575
8.82947