# vtk DataFile Version 2.0
I need something to put here
ASCII

DATASET STRUCTURED_GRID
DIMENSIONS 41 21 21
POINTS 18081 float
0.000000 0.000000 0.000000
0.100000 0.000000 0.000000
0.200000 0.000000 0.000000
0.300000 0.000000 0.000000
0.400000 0.000000 0.000000
0.500000 0.000000 0.000000
0.600000 0.000000 0.000000
0.700000 0.000000 0.000000
0.800000 0.000000 0.000000
0.900000 0.000000 0.000000
1.000000 0.000000 0.000000
1.100000 0.000000 0.000000
1.200000 0.000000 0.000000
1.300000 0.000000 0.000000
1.400000 0.000000 0.000000
1.500000 0.000000 0.000000
1.600000 0.000000 0.000000
1.700000 0.000000 0.000000
1.800000 0.000000 0.000000
1.900000 0.000000 0.000000
2.000000 0.000000 0.000000
2.100000 0.000000 0.000000
2.200000 0.000000 0.000000
2.300000 0.000000 0.000000
2.400000 0.000000 0.000000
2.500000 0.000000 0.000000
2.600000 0.000000 0.000000
2.700000 0.000000 0.000000
2.800000 0.000000 0.000000
2.900000 0.000000 0.000000
3.000000 0.000000 0.000000
3.100000 0.000000 0.000000
3.200000 0.000000 0.000000
3.300000 0.000000 0.000000
3.400000 0.000000 0.000000
3.500000 0.000000 0.000000
3.600000 0.000000 0.000000
3.700000 0.000000 0.000000
3.800000 0.000000 0.000000
3.900000 0.000000 0.000000
4.000000 0.000000 0.000000
0.000000 0.100000 0.000000
0.100000 0.100000 0.000000
0.200000 0.100000 0.000000
0.300000 0.100000 0.000000
0.400000 0.100000 0.000000
0.500000 0.100000 0.000000
0.600000 0.100000 0.000000
0.700000 0.100000 0.000000
0.800000 0.100000 0.000000
0.900000 0.100000 0.000000
1.000000 0.100000 0.000000
1.100000 0.100000 0.000000
1.200000 0.100000 0.000000
1.300000 0.100000 0.000000
1.400000 0.100000 0.000000
1.500000 0.100000 0.000000
1.600000 0.100000 0.000000
1.700000 0.100000 0.000000
1.800000 0.100000 0.000000
1.900000 0.100000 0.000000
2.000000 0.100000 0.000000
2.100000 0.100000 0.000000
2.200000 0.100000 0.000000
2.300000 0.100000 0.000000
2.400000 0.100000 0.000000
2.500000 0.100000 0.000000
2.600000 0.100000 0.000000
2.700000 0.100000 0.000000
2.800000 0.100000 0.000000
2.900000 0.100000 0.000000
3.000000 0.100000 0.000000
3.100000 0.100000 0.000000
3.200000 0.100000 0.000000
3.300000 0.100000 0.000000
3.400000 0.100000 0.000000
3.500000 0.100000 0.000000
3.600000 0.100000 0.000000
3.700000 0.100000 0.000000
3.800000 0.100000 0.000000
3.900000 0.100000 0.000000
4.000000 0.100000 0.000000
0.000000 0.200000 0.000000
0.100000 0.200000 0.000000
0.200000 0.200000 0.000000
0.300000 0.200000 0.000000
0.400000 0.200000 0.000000
0.500000 0.200000 0.000000
0.600000 0.200000 0.000000
0.700000 0.200000 0.000000
0.800000 0.200000 0.000000
0.900000 0.200000 0.000000
1.000000 0.200000 0.000000
1.100000 0.200000 0.000000
1.200000 0.200000 0.000000
1.300000 0.200000 0.000000
1.400000 0.200000 0.000000
1.500000 0.200000 0.000000
1.600000 0.200000 0.000000
1.700000 0.200000 0.000000
1.800000 0.200000 0.000000
1.900000 0.200000 0.000000
2.000000 0.200000 0.000000
2.100000 0.200000 0.000000
2.200000 0.200000 0.000000
2.300000 0.200000 0.000000
2.400000 0.200000 0.000000
2.500000 0.200000 0.000000
2.600000 0.200000 0.000000
2.700000 0.200000 0.000000
2.800000 0.200000 0.000000
2.900000 0.200000 0.000000
3.000000 0.200000 0.000000
3.100000 0.200000 0.000000
3.200000 0.200000 0.000000
3.300000 0.200000 0.000000
3.400000 0.200000 0.000000
3.500000 0.200000 0.000000
3.600000 0.200000 0.000000
3.700000 0.200000 0.000000
3.800000 0.200000 0.000000
3.900000 0.200000 0.000000
4.000000 0.200000 0.000000
0.000000 0.300000 0.000000
0.100000 0.300000 0.000000
0.200000 0.300000 0.000000
0.300000 0.300000 0.000000
0.400000 0.300000 0.000000
0.500000 0.300000 0.000000
0.600000 0.300000 0.000000
0.700000 0.300000 0.000000
0.800000 0.300000 0.000000
0.900000 0.300000 0.000000
1.000000 0.300000 0.000000
1.100000 0.300000 0.000000
1.200000 0.300000 0.000000
1.300000 0.300000 0.000000
1.400000 0.300000 0.000000
1.500000 0.300000 0.000000
1.600000 0.300000 0.000000
1.700000 0.300000 0.000000
1.800000 0.300000 0.000000
1.900000 0.300000 0.000000
2.000000 0.300000 0.000000
2.100000 0.300000 0.000000
2.200000 0.300000 0.000000
2.300000 0.300000 0.000000
2.400000 0.300000 0.000000
2.500000 0.300000 0.000000
2.600000 0.300000 0.000000
2.700000 0.300000 0.000000
2.800000 0.300000 0.000000
2.900000 0.300000 0.000000
3.000000 0.300000 0.000000
3.100000 0.300000 0.000000
3.200000 0.300000 0.000000
3.300000 0.300000 0.000000
3.400000 0.300000 0.000000
3.500000 0.300000 0.000000
3.600000 0.300000 0.000000
3.700000 0.300000 0.000000
3.800000 0.300000 0.000000
3.900000 0.300000 0.000000
4.000000 0.300000 0.000000
0.000000 0.400000 0.000000
0.100000 0.400000 0.000000
0.200000 0.400000 0.000000
0.300000 0.400000 0.000000
0.400000 0.400000 0.000000
0.500000 0.400000 0.000000
0.600000 0.400000 0.000000
0.700000 0.400000 0.000000
0.800000 0.400000 0.000000
0.900000 0.400000 0.000000
1.000000 0.400000 0.000000
1.100000 0.400000 0.000000
1.200000 0.400000 0.000000
1.300000 0.400000 0.000000
1.400000 0.400000 0.000000
1.500000 0.400000 0.000000
1.600000 0.400000 0.000000
1.700000 0.400000 0.000000
1.800000 0.400000 0.000000
1.900000 0.400000 0.000000
2.000000 0.400000 0.000000
2.100000 0.400000 0.000000
2.200000 0.400000 0.000000
2.300000 0.400000 0.000000
2.400000 0.400000 0.000000
2.500000 0.400000 0.000000
2.600000 0.400000 0.000000
2.700000 0.400000 0.000000
2.800000 0.400000 0.000000
2.900000 0.400000 0.000000
3.000000 0.400000 0.000000
3.100000 0.400000 0.000000
3.200000 0.400000 0.000000
3.300000 0.400000 0.000000
3.400000 0.400000 0.000000
3.500000 0.400000 0.000000
3.600000 0.400000 0.000000
3.700000 0.400000 0.000000
3.800000 0.400000 0.000000
3.900000 0.400000 0.000000
4.000000 0.400000 0.000000
0.000000 0.500000 0.000000
0.100000 0.500000 0.000000
0.200000 0.500000 0.000000
0.300000 0.500000 0.000000
0.400000 0.500000 0.000000
0.500000 0.500000 0.000000
0.600000 0.500000 0.000000
0.700000 0.500000 0.000000
0.800000 0.500000 0.000000
0.900000 0.500000 0.000000
1.000000 0.500000 0.000000
1.100000 0.500000 0.000000
1.200000 0.500000 0.000000
1.300000 0.500000 0.000000
1.400000 0.500000 0.000000
1.500000 0.500000 0.000000
1.600000 0.500000 0.000000
1.700000 0.500000 0.000000
1.800000 0.500000 0.000000
1.900000 0.500000 0.000000
2.000000 0.500000 0.000000
2.100000 0.500000 0.000000
2.200000 0.500000 0.000000
2.300000 0.500000 0.000000
2.400000 0.500000 0.000000
2.500000 0.500000 0.000000
2.600000 0.500000 0.000000
2.700000 0.500000 0.000000
2.800000 0.500000 0.000000
2.900000 0.500000 0.000000
3.000000 0.500000 0.000000
3.100000 0.500000 0.000000
3.200000 0.500000 0.000000
3.300000 0.500000 0.000000
3.400000 0.500000 0.000000
3.500000 0.500000 0.000000
3.600000 0.500000 0.000000
3.700000 0.500000 0.000000
3.800000 0.500000 0.000000
3.900000 0.500000 0.000000
4.000000 0.500000 0.000000
0.000000 0.600000 0.000000
0.100000 0.600000 0.000000
0.200000 0.600000 0.000000
0.300000 0.600000 0.000000
0.400000 0.600000 0.000000
0.500000 0.600000 0.000000
0.600000 0.600000 0.000000
0.700000 0.600000 0.000000
0.800000 0.600000 0.000000
0.900000 0.600000 0.000000
1.000000 0.600000 0.000000
1.100000 0.600000 0.000000
1.200000 0.600000 0.000000
1.300000 0.600000 0.000000
1.400000 0.600000 0.000000
1.500000 0.600000 0.000000
1.600000 0.600000 0.000000
1.700000 0.600000 0.000000
1.800000 0.600000 0.000000
1.900000 0.600000 0.000000
2.000000 0.600000 0.000000
2.100000 0.600000 0.000000
2.200000 0.600000 0.000000
2.300000 0.600000 0.000000
2.400000 0.600000 0.000000
2.500000 0.600000 0.000000
2.600000 0.600000 0.000000
2.700000 0.600000 0.000000
2.800000 0.600000 0.000000
2.900000 0.600000 0.000000
3.000000 0.600000 0.000000
3.100000 0.600000 0.000000
3.200000 0.600000 0.000000
3.300000 0.600000 0.000000
3.400000 0.600000 0.000000
3.500000 0.600000 0.000000
3.600000 0.600000 0.000000
3.700000 0.600000 0.000000
3.800000 0.600000 0.000000
3.900000 0.600000 0.000000
4.000000 0.600000 0.000000
0.000000 0.700000 0.000000
0.100000 0.700000 0.000000
0.200000 0.700000 0.000000
0.300000 0.700000 0.000000
0.400000 0.700000 0.000000
0.500000 0.700000 0.000000
0.600000 0.700000 0.000000
0.700000 0.700000 0.000000
0.800000 0.700000 0.000000
0.900000 0.700000 0.000000
1.000000 0.700000 0.000000
1.100000 0.700000 0.000000
1.200000 0.700000 0.000000
1.300000 0.700000 0.000000
1.400000 0.700000 0.000000
1.500000 0.700000 0.000000
1.600000 0.700000 0.000000
1.700000 0.700000 0.000000
1.800000 0.700000 0.000000
1.900000 0.700000 0.000000
2.000000 0.700000 0.000000
2.100000 0.700000 0.000000
2.200000 0.700000 0.000000
2.300000 0.700000 0.000000
2.400000 0.700000 0.000000
2.500000 0.700000 0.000000
2.600000 0.700000 0.000000
2.700000 0.700000 0.000000
2.800000 0.700000 0.000000
2.900000 0.700000 0.000000
3.000000 0.700000 0.000000
3.100000 0.700000 0.000000
3.200000 0.700000 0.000000
3.300000 0.700000 0.000000
3.400000 0.700000 0.000000
3.500000 0.700000 0.000000
3.600000 0.700000 0.000000
3.700000 0.700000 0.000000
3.800000 0.700000 0.000000
3.900000 0.700000 0.000000
4.000000 0.700000 0.000000
0.000000 0.800000 0.000000
0.100000 0.800000 0.000000
0.200000 0.800000 0.000000
0.300000 0.800000 0.000000
0.400000 0.800000 0.000000
0.500000 0.800000 0.000000
0.600000 0.800000 0.000000
0.700000 0.800000 0.000000
0.800000 0.800000 0.000000
0.900000 0.800000 0.000000
1.000000 0.800000 0.000000
1.100000 0.800000 0.000000
1.200000 0.800000 0.000000
1.300000 0.800000 0.000000
1.400000 0.800000 0.000000
1.500000 0.800000 0.000000
1.600000 0.800000 0.000000
1.700000 0.800000 0.000000
1.800000 0.800000 0.000000
1.900000 0.800000 0.000000
2.000000 0.800000 0.000000
2.100000 0.800000 0.000000
2.200000 0.800000 0.000000
2.300000 0.800000 0.000000
2.400000 0.800000 0.000000
2.500000 0.800000 0.000000
2.600000 0.800000 0.000000
2.700000 0.800000 0.000000
2.800000 0.800000 0.000000
2.900000 0.800000 0.000000
3.000000 0.800000 0.000000
3.100000 0.800000 0.000000
3.200000 0.800000 0.000000
3.300000 0.800000 0.000000
3.400000 0.800000 0.000000
3.500000 0.800000 0.000000
3.600000 0.800000 0.000000
[...]
CELL_DATA 16000
SCALARS pressure float 1
LOOKUP_TABLE default
26.3178
26.135
25.7971
25.3461
24.8157
24.23
23.6063
22.9565
22.289
21.6093
20.9212
20.2271
19.5283
18.8255
18.119
17.4091
16.6961
15.9807
15.2635
14.5455
13.8275
13.1104
12.3944
11.6799
10.967
10.2555
9.54518
8.83591
8.12744
7.4196
6.71222
6.00517
5.29836
4.5917
3.88516
3.17869
2.47227
1.76587
1.0595
0.353151
26.3764
26.1663
25.8137
25.3549
24.8202
24.2323
23.6073
22.9569
22.289
21.6091
20.921
20.2269
19.5282
18.8254
18.119
17.4092
16.6962
15.9807
15.2635
14.5454
13.8274
13.1102
12.3943
11.6799
10.9669
10.2554
9.54516
8.8359
8.12745
7.41961
6.71223
6.00518
5.29837
4.59171
3.88517
3.1787
2.47227
1.76587
1.0595
0.353148
26.4965
26.2469
25.8674
25.3906
24.8438
24.2479
23.6175
22.9635
22.2933
21.612
20.923
20.2285
19.5296
18.8268
18.1204
17.4104
16.6972
15.9814
15.2637
14.5453
13.827
13.1096
12.3936
11.6792
10.9663
10.2549
9.54474
8.83558
8.12721
7.41944
6.71211
6.0051
5.29831
4.59168
3.88515
3.17869
2.47226
1.76587
1.0595
0.353142
26.6523
26.3583
25.9455
25.4446
24.8809
24.2731
23.6346
22.975
22.3009
21.6172
20.9268
20.2315
19.5323
18.8295
18.123
17.4128
16.6992
15.9827
15.2643
14.5451
13.8262
13.1085
12.3923
11.6779
10.9652
10.2539
9.54396
8.83497
8.12676
7.41911
6.71188
6.00494
5.29821
4.59161
3.88511
3.17866
2.47225
1.76586
1.05949
0.353137
26.8218
26.4843
26.0365
25.5092
24.9262
24.3044
23.656
22.9895
22.3108
21.624
20.9317
20.2356
19.5361
18.8333
18.1267
17.4163
16.702
15.9845
15.2649
14.5447
13.825
13.1068
12.3904
11.6761
10.9635
10.2526
9.54286
8.83413
8.12613
7.41865
6.71156
6.00472
5.29806
4.59151
3.88504
3.17862
2.47222
1.76585
1.05948
0.353133
26.987
26.6106
26.1299
25.5767
24.9741
24.338
23.6792
23.0054
22.3216
21.6315
20.9373
20.2403
19.5406
18.8378
18.1312
17.4204
16.7053
15.9866
15.2657
14.5441
13.8235
13.1047
12.3881
11.6739
10.9616
10.2509
9.54155
8.83313
8.12538
7.41811
6.71118
6.00446
5.29788
4.5914
3.88497
3.17857
2.4722
1.76583
1.05947
0.35313
27.1341
26.7254
26.2162
25.64
25.0196
24.3702
23.7016
23.0208
22.3321
21.6389
20.9429
20.245
19.5452
18.8426
18.136
17.4248
16.7089
15.9888
15.2664
14.5434
13.8217
13.1024
12.3856
11.6715
10.9595
10.2492
9.54019
8.83208
8.12461
7.41756
6.71078
6.00419
5.2977
4.59128
3.88489
3.17853
2.47217
1.76581
1.05946
0.353129
27.2528
26.8194
26.2877
25.693
25.0581
24.3976
23.7208
23.034
22.3413
21.6453
20.9478
20.2493
19.5494
18.847
18.1405
17.429
16.7121
15.9909
15.267
14.5427
13.8201
13.1002
12.3833
11.6693
10.9576
10.2476
9.53895
8.83114
8.12392
7.41706
6.71043
6.00395
5.29754
4.59117
3.88483
3.17848
2.47214
1.7658
1.05946
0.353128
27.3358
26.8858
26.3387
25.7311
25.0859
24.4175
23.7349
23.0438
22.348
21.6501
20.9515
20.2526
19.5527
18.8504
18.144
17.4322
16.7147
15.9925
15.2674
14.5421
13.8188
13.0985
12.3815
11.6676
10.9561
10.2464
9.53802
8.83044
8.1234
7.41669
6.71018
6.00377
5.29742
4.5911
3.88478
3.17845
2.47213
1.76579
1.05945
0.353128
27.3786
26.9201
26.3653
25.751
25.1005
24.4281
23.7423
23.049
22.3517
21.6527
20.9536
20.2544
19.5546
18.8524
18.146
17.4341
16.7162
15.9934
15.2678
14.5419
13.8181
13.0976
12.3806
11.6668
10.9554
10.2458
9.53754
8.83008
8.12313
7.4165
6.71005
6.00368
5.29736
4.59106
3.88475
3.17844
2.47212
1.76579
1.05945
0.353127
27.3787
26.9203
26.3654
25.7512
25.1007
24.4282
23.7425
23.0492
22.3519
21.653
20.9538
20.2547
19.5549
18.8527
18.1463
17.4344
16.7165
15.9937
15.268
14.5421
13.8183
13.0978
12.3808
11.6669
10.9555
10.2459
9.5376
8.83012
8.12317
7.41653
6.71007
6.0037
5.29737
4.59107
3.88476
3.17844
2.47212
1.76579
1.05945
0.353126
27.3363
26.8862
26.3392
25.7315
25.0864
24.418
23.7355
23.0444
22.3487
21.6509
20.9523
20.2535
19.5536
18.8513
18.1449
17.4331
16.7156
15.9933
15.2681
14.5427
13.8193
13.0989
12.3819
11.6679
10.9564
10.2467
9.53819
8.83057
8.1235
7.41677
6.71024
6.00382
5.29745
4.59112
3.88479
3.17846
2.47213
1.76579
1.05945
0.353125
27.2535
26.8201
26.2885
25.6937
25.0589
24.3984
23.7218
23.0351
22.3424
21.6466
20.9492
20.2508
19.5509
18.8485
18.142
17.4304
16.7135
15.9921
15.2681
14.5437
13.8209
13.1009
12.384
11.6698
10.958
10.248
9.53923
8.83136
8.12409
7.41719
6.71053
6.00402
5.29759
4.59121
3.88485
3.1785
2.47215
1.7658
1.05945
0.353123
27.135
26.7263
26.2171
25.641
25.0207
24.3713
23.7029
23.0221
22.3337
21.6406
20.9447
20.247
19.5472
18.8446
18.138
17.4268
16.7107
15.9905
15.2679
14.5448
13.8229
13.1034
12.3865
11.6722
10.9601
10.2497
9.54056
8.83238
8.12484
7.41773
6.71091
6.00428
5.29777
4.59132
3.88492
3.17854
2.47218
1.76581
1.05946
0.353122
26.9881
26.6117
26.131
25.5779
24.9754
24.3394
23.6807
23.007
22.3234
21.6335
20.9395
20.2426
19.543
18.8402
18.1336
17.4227
16.7075
15.9886
15.2675
14.5458
13.8249
13.1059
12.3891
11.6747
10.9623
10.2515
9.542
8.83348
8.12565
7.41832
6.71133
6.00457
5.29796
4.59145
3.885
3.17859
2.4722
1.76583
1.05947
0.353122
26.8231
26.4856
26.0378
25.5105
24.9276
24.3059
23.6577
22.9913
22.3128
21.6262
20.9341
20.2381
19.5388
18.836
18.1294
17.4189
16.7044
15.9868
15.267
14.5465
13.8266
13.1081
12.3916
11.677
10.9643
10.2532
9.54336
8.83452
8.12643
7.41888
6.71173
6.00484
5.29814
4.59157
3.88508
3.17864
2.47223
1.76584
1.05947
0.353124
26.6537
26.3597
25.9469
25.446
24.8824
24.2747
23.6363
22.9769
22.3031
21.6195
20.9293
20.2342
19.5351
18.8324
18.1259
17.4156
16.7018
15.9851
15.2665
14.547
13.8279
13.1099
12.3935
11.6789
10.966
10.2546
9.54449
8.83539
8.12707
7.41935
6.71205
6.00507
5.29829
4.59167
3.88514
3.17867
2.47225
1.76586
1.05948
0.353127
26.4979
26.2483
25.8688
25.392
24.8454
24.2495
23.6193
22.9655
22.2954
21.6143
20.9256
20.2312
19.5324
18.8297
18.1233
17.4133
16.6999
15.9839
15.266
14.5473
13.8288
13.1111
12.3949
11.6802
10.9672
10.2556
9.54528
8.836
8.12753
7.41968
6.71228
6.00522
5.29839
4.59173
3.88518
3.1787
2.47226
1.76586
1.05949
0.353133
26.3778
26.1677
25.8151
25.3564
24.8217
24.2339
23.609
22.9588
22.291
21.6114
20.9235
20.2296
19.531
18.8283
18.1219
17.412
16.6989
15.9832
15.2657
14.5474
13.8292
13.1117
12.3956
11.6809
10.9678
10.2561
9.54569
8.83631
8.12776
7.41984
6.71239
6.00529
5.29844
4.59176
3.88519
3.1787
2.47227
1.76586
1.05949
0.353139
26.3192
26.1364
25.7984
25.3475
24.8171
24.2315
23.608
22.9584
22.291
21.6115
20.9236
20.2297
19.531
18.8283
18.1218
17.4119
16.6988
15.9831
15.2657
14.5475
13.8292
13.1118
12.3956
11.681
10.9678
10.2561
9.54569
8.8363
8.12774
7.41982
6.71237
6.00528
5.29842
4.59174
3.88518
3.17869
2.47226
1.76586
1.05949
0.353142
26.3764
26.1663
25.8137
25.3549
24.8202
24.2323
23.6073
22.9569
22.289
21.6091
20.921
20.2269
19.5282
18.8254
18.119
17.4092
16.6962
15.9807
15.2635
14.5454
13.8274
13.1102
12.3943
11.6799
10.9669
10.2554
9.54516
8.8359
8.12745
7.41961
6.71223
6.00518
5.29837
4.59171
3.88517
3.1787
2.47227
1.76587
1.0595
0.353148
26.4272
26.1773
25.8078
25.3434
24.808
24.2214
23.5983
22.9497
22.2834
21.6048
20.9177
20.2242
19.5259
18.8235
18.1174
17.4077
16.6951
15.9799
15.263
14.5453
13.8276
13.1106
12.3948
11.6804
10.9675
10.2559
9.5456
8.83627
8.12775
7.41985
6.71242
6.00532
5.29847
4.59179
3.88523
3.17874
2.4723
1.7659
1.05952
0.353153
26.5473
26.2484
25.849
25.3669
24.8211
24.2284
23.6019
22.9513
22.2839
21.6048
20.9174
20.2239
19.5257
18.8234
18.1174
17.4079
16.6952
15.9799
15.2629
14.5451
13.8273
13.1103
12.3945
11.6802
10.9673
10.2558
9.54554
8.83625
8.12775
7.41986
6.71243
6.00534
5.29849
4.59181
3.88524
3.17875
2.47231
1.7659
1.05952
0.353152
26.7091
26.3563
25.9206
25.414
24.852
24.2484
23.6147
22.9594
22.289
21.608
20.9195
20.2256
19.5272
18.8249
18.1189
17.4093
16.6963
15.9807
15.2632
14.5449
13.8267
13.1095
12.3936
11.6793
10.9666
10.2552
9.54506
8.83589
8.12749
7.41968
6.71232
6.00527
5.29845
4.59179
3.88523
3.17875
2.47231
1.76591
1.05952
0.353151
26.8869
26.4817
26.0083
25.4747
24.8935
24.2765
23.6335
22.9719
22.2972
21.6135
20.9234
20.2287
19.53
18.8277
18.1216
17.4117
16.6983
15.9819
15.2636
14.5445
13.8258
13.1082
12.3922
11.678
10.9654
10.2542
9.54425
8.83527
8.12703
7.41935
6.71209
6.00511
5.29835
4.59172
3.88519
3.17872
2.4723
1.7659
1.05952
0.353151
27.0605
26.6087
26.1
25.5399
24.9392
24.3081
23.6551
22.9864
22.307
21.6202
20.9283
20.2326
19.5336
18.8312
18.1251
17.4149
16.7008
15.9835
15.2641
14.5441
13.8246
13.1066
12.3904
11.6762
10.9638
10.2529
9.54322
8.83448
8.12645
7.41893
6.71179
6.00491
5.29821
4.59164
3.88514
3.17869
2.47228
1.76589
1.05952
0.353152
27.2151
26.7245
26.1854
25.6018
24.9833
24.3391
23.6765
23.0011
22.317
21.6271
20.9334
20.2368
19.5375
18.8351
18.1289
17.4184
16.7036
15.9853
15.2647
14.5435
13.8232
13.1048
12.3885
11.6744
10.9622
10.2515
9.54213
8.83364
8.12582
7.41848
6.71147
6.00469
5.29807
4.59154
3.88508
3.17866
2.47226
1.76588
1.05951
0.353154
27.3397
26.8195
26.2565
25.6539
25.0209
24.3658
23.6951
23.0139
22.3258
21.6332
20.9379
20.2406
19.5412
18.8388
18.1325
17.4217
16.7063
15.9869
15.2652
14.5429
13.8219
13.103
12.3867
11.6726
10.9606
10.2503
9.54112
8.83287
8.12525
7.41807
6.71119
6.0045
5.29793
4.59145
3.88502
3.17862
2.47224
1.76587
1.05951
0.353157
27.4267
26.8866
26.3072
25.6915
25.0482
24.3853
23.7088
23.0234
22.3323
21.6379
20.9414
20.2436
19.544
18.8417
18.1354
17.4243
16.7083
15.9882
15.2655
14.5425
13.8209
13.1017
12.3853
11.6713
10.9595
10.2493
9.54037
8.8323
8.12483
7.41776
6.71097
6.00435
5.29784
4.59139
3.88498
3.1786
2.47223
1.76587
1.05951
0.353159
27.4714
26.9213
26.3336
25.7112
25.0626
24.3956
23.7161
23.0285
22.3359
21.6404
20.9434
20.2453
19.5457
18.8434
18.1371
17.4259
16.7096
15.989
15.2658
14.5423
13.8204
13.1011
12.3845
11.6706
10.9589
10.2488
9.53999
8.83201
8.12461
7.41761
6.71086
6.00428
5.29779
4.59136
3.88496
3.17859
2.47222
1.76586
1.05951
0.353159
27.4716
26.9214
26.3338
25.7114
25.0628
24.3958
23.7163
23.0288
22.3362
21.6407
20.9437
20.2456
19.546
18.8437
18.1374
17.4262
16.7099
15.9892
15.266
14.5425
13.8206
13.1012
12.3847
11.6707
10.959
10.2489
9.54004
8.83205
8.12465
7.41764
6.71088
6.00429
5.2978
4.59137
3.88497
3.17859
2.47222
1.76586
1.05951
0.353159
27.4272
26.887
26.3076
25.692
25.0487
24.3858
23.7094
23.024
22.333
21.6386
20.9422
20.2444
19.5449
18.8425
18.1363
17.4252
16.7091
15.9889
15.2662
14.5431
13.8214
13.1021
12.3856
11.6716
10.9597
10.2495
9.54054
8.83243
8.12493
7.41785
6.71103
6.00439
5.29787
4.59141
3.885
3.17861
2.47223
1.76587
1.05951
0.353156
27.3404
26.8202
26.2572
25.6547
25.0217
24.3666
23.696
23.0149
22.3269
21.6344
20.9392
20.242
19.5425
18.8402
18.1339
17.423
16.7075
15.9881
15.2662
14.5439
13.8227
13.1037
12.3873
11.6731
10.9611
10.2506
9.5414
8.83309
8.12542
7.4182
6.71128
6.00457
5.29799
4.59149
3.88505
3.17864
2.47225
1.76588
1.05951
0.353153
27.2161
26.7254
26.1863
25.6027
24.9843
24.3402
23.6777
23.0024
22.3184
21.6287
20.935
20.2386
19.5394
18.837
18.1308
17.4202
16.7053
15.9868
15.2661
14.5448
13.8243
13.1057
12.3893
11.675
10.9627
10.252
9.54249
8.83393
8.12605
7.41865
6.7116
6.00479
5.29814
4.59159
3.88511
3.17868
2.47227
1.76589
1.05951
0.353149
27.0617
26.6098
26.1011
25.541
24.9404
24.3094
23.6565
22.988
22.3087
21.6221
20.9303
20.2347
19.5358
18.8335
18.1273
17.4171
16.7029
15.9854
15.2659
14.5456
13.8259
13.1077
12.3914
11.6771
10.9645
10.2535
9.54366
8.83482
8.12671
7.41914
6.71195
6.00502
5.29829
4.59169
3.88517
3.17871
2.47229
1.7659
1.05952
0.353146
26.8882
26.483
26.0096
25.476
24.8948
24.2779
23.635
22.9736
22.2991
21.6156
20.9257
20.231
19.5325
18.8302
18.1241
17.4141
16.7006
15.9841
15.2656
14.5463
13.8273
13.1095
12.3933
11.6789
10.9661
10.2548
9.54474
8.83565
8.12733
7.41958
6.71226
6.00524
5.29843
4.59178
3.88523
3.17875
2.47231
1.7659
1.05952
0.353143
26.7105
26.3577
25.922
25.4154
24.8534
24.25
23.6164
22.9613
22.291
21.6102
20.9219
20.2281
19.5298
18.8276
18.1216
17.4119
16.6988
15.983
15.2653
14.5467
13.8284
13.1109
12.3948
11.6803
10.9674
10.2559
9.54558
8.83629
8.1278
7.41992
6.71249
6.00539
5.29854
4.59184
3.88526
3.17877
2.47232
1.76591
1.05952
0.353142
26.5487
26.2498
25.8504
25.3683
24.8226
24.23
23.6036
22.9532
22.286
21.607
20.9198
20.2265
19.5284
18.8262
18.1202
17.4105
16.6977
15.9823
15.2651
14.5471
13.829
13.1118
12.3958
11.6812
10.9681
10.2565
9.54607
8.83666
8.12806
7.4201
6.71261
6.00547
5.29858
4.59186
3.88527
3.17877
2.47231
1.7659
1.05951
0.353143
26.4286
26.1787
25.8092
25.3448
24.8095
24.2229
23.6
22.9516
22.2855
21.6071
20.9201
20.2268
19.5286
18.8263
18.1201
17.4105
16.6977
15.9823
15.2652
14.5472
13.8293
13.112
12.396
11.6814
10.9683
10.2566
9.54612
8.83668
8.12806
7.42008
6.71258
6.00544
5.29855
4.59184
3.88525
3.17874
2.4723
1.76589
1.05951
0.353144
26.3778
26.1677
25.8151
25.3563
24.8216
24.2338
23.6089
22.9586
22.2909
21.6113
20.9234
20.2294
19.5308
18.8282
18.1218
17.4118
16.6987
15.9831
15.2656
14.5473
13.8291
13.1117
12.3955
11.6808
10.9677
10.2561
9.54566
8.83628
8.12773
7.41982
6.71238
6.00528
5.29843
4.59175
3.88518
3.1787
2.47226
1.76586
1.05949
0.353138
26.4965
26.2469
25.8674
25.3906
24.8438
24.2479
23.6175
22.9635
22.2933
21.612
20.923
20.2285
19.5296
18.8268
18.1204
17.4104
16.6972
15.9814
15.2637
14.5453
13.827
13.1096
12.3936
11.6792
10.9663
10.2549
9.54474
8.83558
8.12721
7.41944
6.71211
6.0051
5.29831
4.59168
3.88515
3.17869
2.47226
1.76587
1.0595
0.353142
26.5473
26.2484
25.849
25.3669
24.8211
24.2284
23.6019
22.9513
22.2839
21.6048
20.9174
20.2239
19.5257
18.8234
18.1174
17.4079
16.6952
15.9799
15.2629
14.5451
13.8273
13.1103
12.3945
11.6802
10.9673
10.2558
9.54554
8.83625
8.12775
7.41986
6.71244
6.00534
5.29849
4.59181
3.88524
3.17875
2.47231
1.7659
1.05952
0.353152
26.668
26.3146
25.8826
25.3822
24.8267
24.2291
23.6003
22.9489
22.2813
21.6023
20.9152
20.2221
19.5242
18.8222
18.1164
17.4071
16.6946
15.9795
15.2626
14.5449
13.8272
13.1103
12.3946
11.6803
10.9675
10.2561
9.54577
8.83646
8.12794
7.42003
6.71257
6.00546
5.29858
4.59188
3.88529
3.17879
2.47234
1.76592
1.05953
0.353153
26.8335
26.4212
25.95
25.4242
24.8526
24.2447
23.6094
22.954
22.284
21.6037
20.9159
20.2225
19.5246
18.8228
18.1172
17.4079
16.6952
15.9798
15.2626
14.5445
13.8266
13.1096
12.394
11.6798
10.9671
10.2557
9.54553
8.83631
8.12785
7.41998
6.71255
6.00545
5.29859
4.59189
3.88531
3.17881
2.47235
1.76594
1.05954
0.353155
27.0173
26.5475
26.036
25.482
24.8909
24.2699
23.6257
22.9644
22.2905
21.6078
20.9186
20.2246
19.5267
18.8249
18.1193
17.4099
16.6968
15.9808
15.2628
14.544
13.8256
13.1084
12.3927
11.6786
10.9661
10.2549
9.54491
8.83585
8.12753
7.41976
6.71241
6.00536
5.29854
4.59186
3.8853
3.1788
2.47235
1.76594
1.05954
0.353158
27.1978
26.6766
26.1272
25.5457
24.9348
24.2996
23.6456
22.9775
22.2991
21.6134
20.9226
20.2278
19.5297
18.8281
18.1225
17.4129
16.6992
15.9822
15.263
14.5433
13.8243
13.1067
12.391
11.677
10.9647
10.2538
9.54406
8.83521
8.12706
7.41943
6.71219
6.00522
5.29844
4.59181
3.88526
3.17878
2.47235
1.76594
1.05954
0.353162
27.3588
26.7949
26.2129
25.6068
24.9777
24.3294
23.6659
22.9911
22.3081
21.6195
20.9269
20.2315
19.5333
18.8318
18.1263
17.4163
16.7019
15.9838
15.2633
14.5424
13.8227
13.1048
12.389
11.6753
10.9632
10.2526
9.5431
8.83449
8.12654
7.41906
6.71193
6.00504
5.29833
4.59174
3.88522
3.17876
2.47233
1.76593
1.05955
0.353168
27.4887
26.892
26.2845
25.6587
25.0147
24.3553
23.6837
23.0032
22.3163
21.625
20.931
20.2349
19.5367
18.8354
18.1299
17.4197
16.7046
15.9853
15.2635
14.5415
13.8211
13.103
12.3872
11.6736
10.9618
10.2514
9.54221
8.83383
8.12605
7.41871
6.71169
6.00488
5.29822
4.59167
3.88518
3.17874
2.47232
1.76593
1.05955
0.353173
27.5795
26.9607
26.3357
25.6962
25.0417
24.3744
23.697
23.0123
22.3224
21.6293
20.9341
20.2376
19.5394
18.8382
18.1328
17.4224
16.7067
15.9865
15.2636
14.5408
13.8199
13.1015
12.3858
11.6723
10.9607
10.2506
9.54154
8.83332
8.12568
7.41845
6.71151
6.00476
5.29814
4.59162
3.88515
3.17872
2.47231
1.76592
1.05955
0.353177
27.6261
26.9963
26.3624
25.7159
25.0559
24.3845
23.7041
23.0172
22.3258
21.6316
20.9359
20.2391
19.541
18.8399
18.1345
17.4239
16.7079
15.9872
15.2638
14.5405
13.8193
13.1008
12.385
11.6716
10.9601
10.2501
9.5412
8.83306
8.1255
7.41832
6.71142
6.0047
5.29811
4.59159
3.88513
3.17871
2.47231
1.76592
1.05955
0.353179
27.6263
26.9964
26.3625
25.716
25.0561
24.3847
23.7043
23.0174
22.326
21.6319
20.9362
20.2394
19.5412
18.8402
18.1348
17.4242
16.7082
15.9875
15.264
14.5407
13.8194
13.1009
12.3851
11.6717
10.9602
10.2502
9.54125
8.83311
8.12553
7.41835
6.71144
6.00472
5.29812
4.5916
3.88514
3.17871
2.47231
1.76592
1.05955
0.353178
27.58
26.9612
26.3361
25.6966
25.0422
24.3749
23.6975
23.0129
22.3231
21.63
20.9349
20.2384
19.5402
18.839
18.1336
17.4232
16.7074
15.9872
15.2643
14.5414
13.8204
13.1019
12.3861
11.6726
10.9609
10.2508
9.5417
8.83345
8.12578
7.41853
6.71157
6.00481
5.29818
4.59164
3.88516
3.17873
2.47232
1.76592
1.05955
0.353175
27.4895
26.8927
26.2852
25.6594
25.0155
24.3561
23.6846
23.0041
22.3173
21.6262
20.9322
20.2362
19.538
18.8367
18.1313
17.421
16.7058
15.9864
15.2645
14.5425
13.8219
13.1037
12.3878
11.6741
10.9622
10.2518
9.54248
8.83404
8.12622
7.41884
6.71179
6.00495
5.29828
4.5917
3.8852
3.17875
2.47233
1.76593
1.05955
0.353169
27.3598
26.7958
26.2138
25.6078
24.9787
24.3304
23.667
22.9923
22.3095
21.621
20.9286
20.2332
19.5351
18.8336
18.1281
17.4181
16.7036
15.9853
15.2647
14.5437
13.8238
13.1057
12.3898
11.6759
10.9637
10.253
9.54346
8.83478
8.12676
7.41923
6.71206
6.00514
5.2984
4.59178
3.88525
3.17878
2.47234
1.76593
1.05954
0.353162
27.199
26.6778
26.1284
25.5468
24.9359
24.3009
23.647
22.979
22.3007
21.6152
20.9245
20.2299
19.5319
18.8303
18.1247
17.415
16.7012
15.984
15.2647
14.5448
13.8256
13.1079
12.3919
11.6778
10.9654
10.2543
9.54448
8.83555
8.12733
7.41963
6.71234
6.00533
5.29852
4.59186
3.8853
3.1788
2.47235
1.76594
1.05954
0.353156
27.0186
26.5488
26.0373
25.4833
24.8923
24.2713
23.6272
22.966
22.2924
21.6098
20.9208
20.227
19.5291
18.8274
18.1218
17.4123
16.6991
15.9829
15.2647
14.5457
13.8271
13.1097
12.3938
11.6795
10.9668
10.2555
9.5454
8.83623
8.12782
7.41998
6.71258
6.00549
5.29862
4.59192
3.88533
3.17882
2.47236
1.76594
1.05954
0.35315
26.8349
26.4225
25.9514
25.4256
24.854
24.2462
23.6111
22.9558
22.286
21.6058
20.9182
20.225
19.5272
18.8255
18.1198
17.4104
16.6976
15.9821
15.2646
14.5464
13.8282
13.111
12.3951
11.6807
10.9679
10.2564
9.54604
8.83671
8.12816
7.42021
6.71273
6.00558
5.29868
4.59195
3.88534
3.17882
2.47236
1.76593
1.05953
0.353146
26.6695
26.316
25.884
25.3836
24.8282
24.2307
23.602
22.9507
22.2833
21.6045
20.9176
20.2246
19.5269
18.825
18.1192
17.4098
16.6971
15.9818
15.2647
14.5468
13.8289
13.1117
12.3958
11.6813
10.9683
10.2567
9.54629
8.83687
8.12825
7.42026
6.71274
6.00558
5.29866
4.59193
3.88532
3.1788
2.47234
1.76592
1.05953
0.353144
26.5487
26.2498
25.8504
25.3683
24.8226
24.23
23.6035
22.9531
22.2859
21.607
20.9198
20.2265
19.5284
18.8262
18.1202
17.4106
16.6978
15.9823
15.2651
14.5471
13.829
13.1118
12.3957
11.6812
10.9681
10.2565
9.54604
8.83664
8.12804
7.42008
6.71259
6.00545
5.29856
4.59185
3.88526
3.17876
2.4723
1.76589
1.05951
0.353141
26.4979
26.2483
25.8688
25.3919
24.8452
24.2493
23.6191
22.9653
22.2952
21.6141
20.9254
20.231
19.5323
18.8296
18.1232
17.4131
16.6998
15.9838
15.2659
14.5472
13.8287
13.111
12.3948
11.6801
10.9671
10.2555
9.54521
8.83593
8.12747
7.41963
6.71224
6.00518
5.29836
4.5917
3.88515
3.17868
2.47225
1.76585
1.05948
0.353129
26.6523
26.3583
25.9455
25.4446
24.8809
24.2731
23.6346
22.975
22.3009
21.6172
20.9268
20.2315
19.5323
18.8295
18.123
17.4128
16.6992
15.9827
15.2643
14.5451
13.8262
13.1085
12.3923
11.6779
10.9652
10.2539
9.54396
8.83497
8.12676
7.41911
6.71188
6.00494
5.29821
4.59161
3.88511
3.17866
2.47225
1.76586
1.05949
0.353137
26.7091
26.3563
25.9206
25.414
24.852
24.2484
23.6147
22.9594
22.289
21.608
20.9195
20.2256
19.5272
18.8249
18.1189
17.4093
16.6963
15.9807
15.2632
14.5449
13.8267
13.1095
12.3936
11.6793
10.9666
10.2552
9.54506
8.83589
8.12749
7.41968
6.71232
6.00527
5.29845
4.59179
3.88523
3.17875
2.47231
1.76591
1.05952
0.353151
26.8335
26.4212
25.95
25.4242
24.8526
24.2447
23.6094
22.954
22.284
21.6037
20.9159
20.2225
19.5246
18.8228
18.1172
17.4079
16.6952
15.9798
15.2626
14.5445
13.8266
13.1096
12.394
11.6798
10.9671
10.2557
9.54553
8.83631
8.12785
7.41998
6.71255
6.00545
5.29859
4.59189
3.88531
3.17881
2.47235