# vtk DataFile Version 2.0
I need something to put here
ASCII

DATASET STRUCTURED_GRID
DIMENSIONS 41 21 21
POINTS 18081 float
0.000000 0.000000 0.000000
0.100000 0.000000 0.000000
0.200000 0.000000 0.000000
0.300000 0.000000 0.000000
0.400000 0.000000 0.000000
0.500000 0.000000 0.000000
0.600000 0.000000 0.000000
0.700000 0.000000 0.000000
0.800000 0.000000 0.000000
0.900000 0.000000 0.000000
1.000000 0.000000 0.000000
1.100000 0.000000 0.000000
1.200000 0.000000 0.000000
1.300000 0.000000 0.000000
1.400000 0.000000 0.000000
1.500000 0.000000 0.000000
1.600000 0.000000 0.000000
1.700000 0.000000 0.000000
1.800000 0.000000 0.000000
1.900000 0.000000 0.000000
2.000000 0.000000 0.000000
2.100000 0.000000 0.000000
2.200000 0.000000 0.000000
2.300000 0.000000 0.000000
2.400000 0.000000 0.000000
2.500000 0.000000 0.000000
2.600000 0.000000 0.000000
2.700000 0.000000 0.000000
2.800000 0.000000 0.000000
2.900000 0.000000 0.000000
3.000000 0.000000 0.000000
3.100000 0.000000 0.000000
3.200000 0.000000 0.000000
3.300000 0.000000 0.000000
3.400000 0.000000 0.000000
3.500000 0.000000 0.000000
3.600000 0.000000 0.000000
3.700000 0.000000 0.000000
3.800000 0.000000 0.000000
3.900000 0.000000 0.000000
4.000000 0.000000 0.000000
0.000000 0.100000 0.000000
0.100000 0.100000 0.000000
0.200000 0.100000 0.000000
0.300000 0.100000 0.000000
0.400000 0.100000 0.000000
0.500000 0.100000 0.000000
0.600000 0.100000 0.000000
0.700000 0.100000 0.000000
0.800000 0.100000 0.000000
0.900000 0.100000 0.000000
1.000000 0.100000 0.000000
1.100000 0.100000 0.000000
1.200000 0.100000 0.000000
1.300000 0.100000 0.000000
1.400000 0.100000 0.000000
1.500000 0.100000 0.000000
1.600000 0.100000 0.000000
1.700000 0.100000 0.000000
1.800000 0.100000 0.000000
1.900000 0.100000 0.000000
2.000000 0.100000 0.000000
2.100000 0.100000 0.000000
2.200000 0.100000 0.000000
2.300000 0.100000 0.000000
2.400000 0.100000 0.000000
2.500000 0.100000 0.000000
2.600000 0.100000 0.000000
2.700000 0.100000 0.000000
2.800000 0.100000 0.000000
2.900000 0.100000 0.000000
3.000000 0.100000 0.000000
3.100000 0.100000 0.000000
3.200000 0.100000 0.000000
3.300000 0.100000 0.000000
3.400000 0.100000 0.000000
3.500000 0.100000 0.000000
3.600000 0.100000 0.000000
3.700000 0.100000 0.000000
3.800000 0.100000 0.000000
3.900000 0.100000 0.000000
4.000000 0.100000 0.000000
0.000000 0.200000 0.000000
0.100000 0.200000 0.000000
0.200000 0.200000 0.000000
0.300000 0.200000 0.000000
0.400000 0.200000 0.000000
0.500000 0.200000 0.000000
0.600000 0.200000 0.000000
0.700000 0.200000 0.000000
0.800000 0.200000 0.000000
0.900000 0.200000 0.000000
1.000000 0.200000 0.000000
1.100000 0.200000 0.000000
1.200000 0.200000 0.000000
1.300000 0.200000 0.000000
1.400000 0.200000 0.000000
1.500000 0.200000 0.000000
1.600000 0.200000 0.000000
1.700000 0.200000 0.000000
1.800000 0.200000 0.000000
1.900000 0.200000 0.000000
2.000000 0.200000 0.000000
2.100000 0.200000 0.000000
2.200000 0.200000 0.000000
2.300000 0.200000 0.000000
2.400000 0.200000 0.000000
2.500000 0.200000 0.000000
2.600000 0.200000 0.000000
2.700000 0.200000 0.000000
2.800000 0.200000 0.000000
2.900000 0.200000 0.000000
3.000000 0.200000 0.000000
3.100000 0.200000 0.000000
3.200000 0.200000 0.000000
3.300000 0.200000 0.000000
3.400000 0.200000 0.000000
3.500000 0.200000 0.000000
3.600000 0.200000 0.000000
3.700000 0.200000 0.000000
3.800000 0.200000 0.000000
3.900000 0.200000 0.000000
4.000000 0.200000 0.000000
0.000000 0.300000 0.000000
0.100000 0.300000 0.000000
0.200000 0.300000 0.000000
0.300000 0.300000 0.000000
0.400000 0.300000 0.000000
0.500000 0.300000 0.000000
0.600000 0.300000 0.000000
0.700000 0.300000 0.000000
0.800000 0.300000 0.000000
0.900000 0.300000 0.000000
1.000000 0.300000 0.000000
1.100000 0.300000 0.000000
1.200000 0.300000 0.000000
1.300000 0.300000 0.000000
1.400000 0.300000 0.000000
1.500000 0.300000 0.000000
1.600000 0.300000 0.000000
1.700000 0.300000 0.000000
1.800000 0.300000 0.000000
1.900000 0.300000 0.000000
2.000000 0.300000 0.000000
2.100000 0.300000 0.000000
2.200000 0.300000 0.000000
2.300000 0.300000 0.000000
2.400000 0.300000 0.000000
2.500000 0.300000 0.000000
2.600000 0.300000 0.000000
2.700000 0.300000 0.000000
2.800000 0.300000 0.000000
2.900000 0.300000 0.000000
3.000000 0.300000 0.000000
3.100000 0.300000 0.000000
3.200000 0.300000 0.000000
3.300000 0.300000 0.000000
3.400000 0.300000 0.000000
3.500000 0.300000 0.000000
3.600000 0.300000 0.000000
3.700000 0.300000 0.000000
3.800000 0.300000 0.000000
3.900000 0.300000 0.000000
4.000000 0.300000 0.000000
0.000000 0.400000 0.000000
0.100000 0.400000 0.000000
0.200000 0.400000 0.000000
0.300000 0.400000 0.000000
0.400000 0.400000 0.000000
0.500000 0.400000 0.000000
0.600000 0.400000 0.000000
0.700000 0.400000 0.000000
0.800000 0.400000 0.000000
0.900000 0.400000 0.000000
1.000000 0.400000 0.000000
1.100000 0.400000 0.000000
1.200000 0.400000 0.000000
1.300000 0.400000 0.000000
1.400000 0.400000 0.000000
1.500000 0.400000 0.000000
1.600000 0.400000 0.000000
1.700000 0.400000 0.000000
1.800000 0.400000 0.000000
1.900000 0.400000 0.000000
2.000000 0.400000 0.000000
2.100000 0.400000 0.000000
2.200000 0.400000 0.000000
2.300000 0.400000 0.000000
2.400000 0.400000 0.000000
2.500000 0.400000 0.000000
2.600000 0.400000 0.000000
2.700000 0.400000 0.000000
2.800000 0.400000 0.000000
2.900000 0.400000 0.000000
3.000000 0.400000 0.000000
3.100000 0.400000 0.000000
3.200000 0.400000 0.000000
3.300000 0.400000 0.000000
3.400000 0.400000 0.000000
3.500000 0.400000 0.000000
3.600000 0.400000 0.000000
3.700000 0.400000 0.000000
3.800000 0.400000 0.000000
3.900000 0.400000 0.000000
4.000000 0.400000 0.000000
0.000000 0.500000 0.000000
0.100000 0.500000 0.000000
0.200000 0.500000 0.000000
0.300000 0.500000 0.000000
0.400000 0.500000 0.000000
0.500000 0.500000 0.000000
0.600000 0.500000 0.000000
0.700000 0.500000 0.000000
0.800000 0.500000 0.000000
0.900000 0.500000 0.000000
1.000000 0.500000 0.000000
1.100000 0.500000 0.000000
1.200000 0.500000 0.000000
1.300000 0.500000 0.000000
1.400000 0.500000 0.000000
1.500000 0.500000 0.000000
1.600000 0.500000 0.000000
1.700000 0.500000 0.000000
1.800000 0.500000 0.000000
1.900000 0.500000 0.000000
2.000000 0.500000 0.000000
2.100000 0.500000 0.000000
2.200000 0.500000 0.000000
2.300000 0.500000 0.000000
2.400000 0.500000 0.000000
2.500000 0.500000 0.000000
2.600000 0.500000 0.000000
2.700000 0.500000 0.000000
2.800000 0.500000 0.000000
2.900000 0.500000 0.000000
3.000000 0.500000 0.000000
3.100000 0.500000 0.000000
3.200000 0.500000 0.000000
3.300000 0.500000 0.000000
3.400000 0.500000 0.000000
3.500000 0.500000 0.000000
3.600000 0.500000 0.000000
3.700000 0.500000 0.000000
3.800000 0.500000 0.000000
3.900000 0.500000 0.000000
4.000000 0.500000 0.000000
0.000000 0.600000 0.000000
0.100000 0.600000 0.000000
0.200000 0.600000 0.000000
0.300000 0.600000 0.000000
0.400000 0.600000 0.000000
0.500000 0.600000 0.000000
0.600000 0.600000 0.000000
0.700000 0.600000 0.000000
0.800000 0.600000 0.000000
0.900000 0.600000 0.000000
1.000000 0.600000 0.000000
1.100000 0.600000 0.000000
1.200000 0.600000 0.000000
1.300000 0.600000 0.000000
1.400000 0.600000 0.000000
1.500000 0.600000 0.000000
1.600000 0.600000 0.000000
1.700000 0.600000 0.000000
1.800000 0.600000 0.000000
1.900000 0.600000 0.000000
2.000000 0.600000 0.000000
2.100000 0.600000 0.000000
2.200000 0.600000 0.000000
2.300000 0.600000 0.000000
2.400000 0.600000 0.000000
2.500000 0.600000 0.000000
2.600000 0.600000 0.000000
2.700000 0.600000 0.000000
2.800000 0.600000 0.000000
2.900000 0.600000 0.000000
3.000000 0.600000 0.000000
3.100000 0.600000 0.000000
3.200000 0.600000 0.000000
3.300000 0.600000 0.000000
3.400000 0.600000 0.000000
3.500000 0.600000 0.000000
3.600000 0.600000 0.000000
3.700000 0.600000 0.000000
3.800000 0.600000 0.000000
3.900000 0.600000 0.000000
4.000000 0.600000 0.000000
0.000000 0.700000 0.000000
0.100000 0.700000 0.000000
0.200000 0.700000 0.000000
0.300000 0.700000 0.000000
0.400000 0.700000 0.000000
0.500000 0.700000 0.000000
0.600000 0.700000 0.000000
0.700000 0.700000 0.000000
0.800000 0.700000 0.000000
0.900000 0.700000 0.000000
1.000000 0.700000 0.000000
1.100000 0.700000 0.000000
1.200000 0.700000 0.000000
1.300000 0.700000 0.000000
1.400000 0.700000 0.000000
1.500000 0.700000 0.000000
1.600000 0.700000 0.000000
1.700000 0.700000 0.000000
1.800000 0.700000 0.000000
1.900000 0.700000 0.000000
2.000000 0.700000 0.000000
2.100000 0.700000 0.000000
2.200000 0.700000 0.000000
2.300000 0.700000 0.000000
2.400000 0.700000 0.000000
2.500000 0.700000 0.000000
2.600000 0.700000 0.000000
2.700000 0.700000 0.000000
2.800000 0.700000 0.000000
2.900000 0.700000 0.000000
3.000000 0.700000 0.000000
3.100000 0.700000 0.000000
3.200000 0.700000 0.000000
3.300000 0.700000 0.000000
3.400000 0.700000 0.000000
3.500000 0.700000 0.000000
3.600000 0.700000 0.000000
3.700000 0.700000 0.000000
3.800000 0.700000 0.000000
3.900000 0.700000 0.000000
4.000000 0.700000 0.000000
0.000000 0.800000 0.000000
0.100000 0.800000 0.000000
0.200000 0.800000 0.000000
0.300000 0.800000 0.000000
0.400000 0.800000 0.000000
0.500000 0.800000 0.000000
0.600000 0.800000 0.000000
0.700000 0.800000 0.000000
0.800000 0.800000 0.000000
0.900000 0.800000 0.000000
1.000000 0.800000 0.000000
1.100000 0.800000 0.000000
1.200000 0.800000 0.000000
1.300000 0.800000 0.000000
1.400000 0.800000 0.000000
1.500000 0.800000 0.000000
1.600000 0.800000 0.000000
1.700000 0.800000 0.000000
1.800000 0.800000 0.000000
1.900000 0.800000 0.000000
2.000000 0.800000 0.000000
2.100000 0.800000 0.000000
2.200000 0.800000 0.000000
2.300000 0.800000 0.000000
2.400000 0.800000 0.000000
2.500000 0.800000 0.000000
2.600000 0.800000 0.000000
2.700000 0.800000 0.000000
2.800000 0.800000 0.000000
2.900000 0.800000 0.000000
3.000000 0.800000 0.000000
3.100000 0.800000 0.000000
3.200000 0.800000 0.000000
3.300000 0.800000 0.000000
3.400000 0.800000 0.000000
3.500000 0.800000 0.000000
3.600000 0.800000 0.000000
[...]
CELL_DATA 16000
SCALARS pressure float 1
LOOKUP_TABLE default
37.5878
37.4139
37.0755
36.6012
36.0124
35.3217
34.5334
33.6457
32.6533
31.551
30.3367
29.015
27.5984
26.1069
24.566
23.0038
21.449
19.9289
18.4674
17.0838
15.7905
14.5924
13.4873
12.4673
11.5212
10.6365
9.80065
9.00257
8.23275
7.48351
6.74891
6.02447
5.30693
4.59395
3.88391
3.17573
2.46871
1.76243
1.05675
0.351764
37.6419
37.4437
37.0919
36.6101
36.0173
35.3248
34.5359
33.6483
32.6565
31.5547
30.3406
29.0185
27.6009
26.1082
24.5661
23.0027
21.4469
19.9259
18.4638
17.08
15.7869
14.5894
13.4851
12.4659
11.5206
10.6365
9.80109
9.00325
8.23352
7.48428
6.74962
6.02509
5.30745
4.59437
3.88425
3.176
2.46891
1.76256
1.0568
0.351676
37.7631
37.5299
37.1556
36.66
36.0599
35.3648
34.5768
33.692
32.7032
31.6028
30.3871
29.0594
27.6326
26.1283
24.5735
22.9975
21.4298
19.8984
18.4281
17.0391
15.7445
14.5488
13.4487
12.4352
11.4959
10.6173
9.78681
8.99295
8.22632
7.47939
6.74641
6.02305
5.3062
4.59365
3.88386
3.17581
2.46881
1.76249
1.05667
0.351492
37.9315
37.6575
37.2553
36.7425
36.1338
35.4369
34.6521
33.7733
32.7904
31.6926
30.4735
29.135
27.6907
26.1646
24.5861
22.9867
21.3969
19.8459
18.3602
16.9619
15.6646
14.4723
13.3802
12.3771
11.4488
10.5807
9.7593
8.97289
8.21209
7.46956
6.73978
6.01871
5.30344
4.59195
3.88285
3.17523
2.46848
1.76227
1.05649
0.351326
38.1265
37.8114
37.3797
36.8487
36.2319
35.5351
34.7565
33.8871
32.9131
31.8195
30.5956
29.2415
27.7719
26.2143
24.6024
22.9697
21.3488
19.7701
18.2626
16.851
15.5502
14.3634
13.283
12.295
11.3826
10.5293
9.7207
8.94474
8.19209
7.4557
6.7304
6.01251
5.29945
4.58946
3.88135
3.17435
2.46797
1.76197
1.05629
0.351211
38.3277
37.9749
37.5155
36.9677
36.3442
35.6497
34.8801
34.0234
33.0612
31.9733
30.7439
29.3707
27.8696
26.2733
24.6205
22.9477
21.289
19.6766
18.1425
16.7149
15.4105
14.231
13.1656
12.1963
11.3033
10.468
9.6748
8.91133
8.16838
7.43927
6.71928
6.00515
5.2947
4.58648
3.87953
3.17328
2.46737
1.76164
1.05611
0.351153
38.5161
38.1315
37.6482
37.0862
36.4583
35.768
35.0093
34.167
33.2184
32.1374
30.9027
29.5088
27.9736
26.3355
24.6388
22.9234
21.2245
19.5759
18.0131
16.5686
15.2609
14.0899
13.041
12.0922
11.2201
10.4039
9.62694
8.87659
8.14378
7.42224
6.70775
5.99753
5.28978
4.58338
3.87765
3.17217
2.46675
1.76131
1.05597
0.351141
38.6744
38.2651
37.7633
37.1907
36.5603
35.875
35.1273
34.2993
33.3641
32.2902
31.051
29.6378
28.0704
26.393
24.6555
22.9004
21.1642
19.4818
17.8921
16.4319
15.1214
13.9589
12.926
11.9964
11.1438
10.3454
9.58339
8.84504
8.12149
7.40684
6.69734
5.99064
5.28533
4.58059
3.87594
3.17118
2.4662
1.76104
1.05587
0.351158
38.7885
38.3625
37.8481
37.2685
36.637
35.9562
35.2175
34.4009
33.4765
32.4085
31.1661
29.7381
28.1457
26.4378
24.6685
22.8826
21.1173
19.4087
17.7982
16.3259
15.0136
13.8579
12.8374
11.923
11.0855
10.3007
9.55023
8.82108
8.10457
7.39517
6.68946
5.98544
5.28197
4.57847
3.87466
3.17043
2.46579
1.76084
1.05581
0.351183
38.8482
38.4138
37.8931
37.31
36.6782
36
35.2664
34.4562
33.5378
32.4732
31.2291
29.7931
28.187
26.4624
24.6758
22.873
21.0918
19.3689
17.747
16.2682
14.9548
13.8029
12.7893
11.8831
11.0539
10.2765
9.53232
8.80815
8.09545
7.38888
6.68521
5.98263
5.28016
4.57734
3.87396
3.17002
2.46557
1.76073
1.05577
0.351199
38.8484
38.414
37.8932
37.3102
36.6784
36.0002
35.2665
34.4564
33.538
32.4734
31.2293
29.7933
28.1872
26.4626
24.676
22.8732
21.092
19.3691
17.7471
16.2683
14.9549
13.803
12.7894
11.8831
11.0539
10.2765
9.53231
8.80814
8.09545
7.38887
6.68521
5.98263
5.28016
4.57733
3.87396
3.17002
2.46556
1.76073
1.05577
0.351197
38.7889
38.3629
37.8485
37.2689
36.6375
35.9567
35.218
34.4015
33.4771
32.4091
31.1667
29.7388
28.1463
26.4384
24.6691
22.8832
21.1178
19.4092
17.7986
16.3263
15.0138
13.858
12.8375
11.923
11.0855
10.3007
9.55021
8.82106
8.10455
7.39514
6.68944
5.98542
5.28196
4.57846
3.87465
3.17042
2.46578
1.76083
1.0558
0.351176
38.675
38.2658
37.764
37.1914
36.561
35.8758
35.1281
34.3002
33.3651
32.2913
31.0521
29.639
28.0715
26.3941
24.6565
22.9012
21.1649
19.4824
17.8926
16.4323
15.1217
13.9591
12.9261
11.9965
11.1438
10.3453
9.58335
8.845
8.12144
7.4068
6.6973
5.99061
5.28531
4.58056
3.87593
3.17116
2.46619
1.76103
1.05586
0.351148
38.517
38.1324
37.6491
37.0872
36.4593
35.7691
35.0105
34.1683
33.2198
32.1389
30.9043
29.5104
27.9751
26.3368
24.64
22.9244
21.2253
19.5766
18.0136
16.569
15.2611
14.09
13.0411
12.0922
11.22
10.4038
9.62687
8.87651
8.14371
7.42218
6.7077
5.99748
5.28974
4.58335
3.87762
3.17216
2.46674
1.7613
1.05596
0.351128
38.3288
37.976
37.5166
36.9688
36.3454
35.651
34.8816
34.0249
33.0629
31.9751
30.7458
29.3726
27.8714
26.2749
24.6218
22.9488
21.2899
19.6772
18.1429
16.7152
15.4107
14.231
13.1655
12.1962
11.3032
10.4679
9.67468
8.91122
8.16829
7.43919
6.71921
6.00509
5.29465
4.58644
3.8795
3.17326
2.46735
1.76162
1.0561
0.351137
38.1278
37.8126
37.381
36.85
36.2332
35.5366
34.7581
33.8889
32.9151
31.8215
30.5977
29.2436
27.7739
26.2161
24.6038
22.9709
21.3496
19.7706
18.2629
16.8511
15.5502
14.3633
13.2829
12.2948
11.3824
10.5292
9.72054
8.9446
8.19197
7.4556
6.73032
6.01244
5.2994
4.58941
3.88131
3.17432
2.46795
1.76195
1.05627
0.351195
37.9329
37.6589
37.2567
36.7439
36.1353
35.4386
34.6539
33.7753
32.7925
31.6949
30.4758
29.1373
27.6928
26.1664
24.5877
22.9879
21.3977
19.8464
18.3604
16.9619
15.6644
14.4721
13.3799
12.3768
11.4486
10.5805
9.7591
8.97272
8.21195
7.46944
6.73969
6.01863
5.30338
4.5919
3.88282
3.1752
2.46846
1.76225
1.05647
0.35131
37.7645
37.5313
37.157
36.6615
36.0615
35.3665
34.5786
33.694
32.7054
31.6051
30.3894
29.0617
27.6347
26.1302
24.575
22.9987
21.4306
19.8988
18.4282
17.0391
15.7443
14.5485
13.4484
12.4349
11.4956
10.6171
9.78658
8.99276
8.22616
7.47926
6.7463
6.02297
5.30614
4.5936
3.88382
3.17578
2.46879
1.76247
1.05666
0.351479
37.6433
37.4451
37.0933
36.6116
36.0189
35.3265
34.5377
33.6503
32.6587
31.557
30.3429
29.0208
27.6031
26.1101
24.5676
23.0039
21.4477
19.9263
18.464
17.0799
15.7867
14.5891
13.4847
12.4656
11.5203
10.6362
9.80085
9.00304
8.23335
7.48414
6.74951
6.025
5.30738
4.59432
3.88421
3.17597
2.46889
1.76255
1.05679
0.351667
37.5892
37.4153
37.077
36.6026
36.014
35.3234
34.5352
33.6477
32.6555
31.5533
30.3391
29.0173
27.6005
26.1088
24.5675
23.0049
21.4498
19.9293
18.4675
17.0837
15.7903
14.5921
13.4869
12.4669
11.5209
10.6362
9.8004
9.00237
8.23258
7.48337
6.7488
6.02438
5.30686
4.59389
3.88387
3.17571
2.46869
1.76242
1.05675
0.35176
37.6419
37.4437
37.0919
36.6101
36.0173
35.3248
34.5358
33.6483
32.6565
31.5547
30.3405
29.0184
27.6009
26.1082
24.5661
23.0027
21.4469
19.9259
18.4639
17.08
15.7869
14.5894
13.4851
12.4659
11.5206
10.6365
9.8011
9.00325
8.23352
7.48428
6.74962
6.02509
5.30745
4.59437
3.88425
3.176
2.46891
1.76256
1.0568
0.351676
37.6815
37.4459
37.0743
36.5824
35.984
35.2876
34.4955
33.6054
32.612
31.5103
30.2986
28.9815
27.5713
26.0878
24.556
23.0035
21.4581
19.9465
18.4922
17.1138
15.8236
14.6265
13.5205
12.4981
11.5487
10.6601
9.82039
9.0186
8.24545
7.49336
6.75641
6.03009
5.31107
4.59696
3.88608
3.17729
2.46982
1.76322
1.05725
0.351808
37.7963
37.5164
37.1168
36.6078
35.9996
35.298
34.504
33.6139
32.6215
31.5206
30.3088
28.9902
27.5772
26.0904
24.5553
22.9996
21.4515
19.9377
18.4819
17.103
15.8134
14.6179
13.514
12.4939
11.5465
10.6595
9.8209
9.0198
8.24699
7.495
6.75798
6.0315
5.31228
4.59796
3.8869
3.17793
2.47031
1.76357
1.05744
0.351769
37.9662
37.6358
37.2031
36.6734
36.0536
35.3472
34.5532
33.6657
32.6765
31.5771
30.3629
29.037
27.6123
26.1111
24.5606
22.99
21.4281
19.9021
18.437
17.0527
15.7622
14.5697
13.4716
12.4587
11.5187
10.6385
9.80563
9.00914
8.23983
7.4904
6.75517
6.02989
5.31145
4.59763
3.88684
3.17802
2.47045
1.7637
1.0575
0.351727
38.1673
37.7855
37.3183
36.767
36.1357
35.4259
34.6341
33.7522
32.7685
31.6713
30.4529
29.1147
27.6706
26.1455
24.5698
22.9745
21.3896
19.8434
18.3625
16.969
15.6767
14.4888
13.3999
12.3984
11.4703
10.6012
9.77793
8.98918
8.22588
7.48092
6.74893
6.02592
5.30903
4.59622
3.88608
3.17766
2.47031
1.76366
1.0575
0.351728
38.3765
37.9469
37.4472
36.8756
36.2344
35.523
34.7358
33.8617
32.8858
31.7919
30.5683
29.2142
27.7447
26.1889
24.5811
22.9545
21.3403
19.7681
18.2668
16.8614
15.5668
14.3851
13.308
12.3213
11.4084
10.5534
9.74212
8.96318
8.20752
7.4683
6.74048
6.02042
5.30557
4.59412
3.88487
3.177
2.46999
1.76353
1.05747
0.351776
38.5727
38.1022
37.5743
36.9854
36.3364
35.6252
34.8443
33.9799
33.0131
31.9234
30.6944
29.323
27.8254
26.2357
24.593
22.9324
21.2864
19.6857
18.1619
16.7436
15.4469
14.2723
13.2085
12.238
11.3416
10.5017
9.70348
8.93509
8.18762
7.45455
6.73121
6.01434
5.30168
4.59172
3.88345
3.17621
2.46959
1.76337
1.05745
0.351858
38.7377
38.235
37.6849
37.0827
36.4283
35.7186
34.9444
34.0896
33.1321
32.0469
30.8134
29.4256
27.9012
26.2796
24.604
22.9117
21.2359
19.6084
18.0632
16.6328
15.3344
14.1668
13.1157
12.1605
11.2796
10.4539
9.66776
8.90911
8.16921
7.44181
6.72261
6.00867
5.29804
4.58946
3.8821
3.17545
2.46919
1.7632
1.05743
0.351952
38.8567
38.3319
37.7665
37.1553
36.4976
35.7897
35.0212
34.1743
33.2243
32.1429
30.906
29.5056
27.9604
26.3139
24.6127
22.8958
21.1968
19.5483
17.9865
16.5467
15.2472
14.0852
13.0442
12.1009
11.232
10.4173
9.64036
8.8892
8.15509
7.43204
6.716
6.0043
5.29524
4.58771
3.88105
3.17485
2.46888
1.76307
1.05742
0.352032
38.919
38.3829
37.8098
37.1941
36.5349
35.8281
35.0628
34.2204
33.2746
32.1953
30.9567
29.5495
27.9929
26.3329
24.6177
22.8872
21.1755
19.5155
17.9447
16.4999
15.1997
14.0408
13.0052
12.0685
11.2062
10.3974
9.62552
8.87842
8.14745
7.42675
6.71241
6.00193
5.29371
4.58676
3.88048
3.17452
2.46871
1.763
1.05742
0.352078
38.9191
38.383
37.81
37.1942
36.535
35.8282
35.063
34.2206
33.2748
32.1955
30.9569
29.5497
27.9931
26.333
24.6179
22.8874
21.1756
19.5156
17.9448
16.5
15.1998
14.0409
13.0053
12.0685
11.2062
10.3974
9.62552
8.87841
8.14744
7.42674
6.71241
6.00193
5.29371
4.58675
3.88047
3.17452
2.46871
1.763
1.05742
0.352078
38.8571
38.3323
37.7669
37.1557
36.498
35.7901
35.0216
34.1748
33.2248
32.1434
30.9066
29.5062
27.961
26.3145
24.6133
22.8963
21.1972
19.5487
17.9868
16.547
15.2474
14.0854
13.0443
12.1009
11.232
10.4173
9.64035
8.88918
8.15507
7.43202
6.71597
6.00428
5.29522
4.5877
3.88104
3.17484
2.46888
1.76307
1.05743
0.352031
38.7384
38.2357
37.6856
37.0834
36.429
35.7193
34.9452
34.0905
33.133
32.0478
30.8144
29.4266
27.9022
26.2805
24.6048
22.9125
21.2366
19.6089
18.0636
16.6331
15.3346
14.167
13.1158
12.1606
11.2796
10.4539
9.66772
8.90907
8.16916
7.44177
6.72257
6.00863
5.29802
4.58944
3.88209
3.17543
2.46919
1.7632
1.05744
0.351949
38.5736
38.1031
37.5752
36.9863
36.3374
35.6263
34.8454
33.9811
33.0144
31.9247
30.6959
29.3244
27.8267
26.237
24.594
22.9333
21.2871
19.6863
18.1623
16.7439
15.4471
14.2724
13.2085
12.2379
11.3415
10.5017
9.70341
8.93502
8.18755
7.45449
6.73116
6.01429
5.30165
4.5917
3.88343
3.1762
2.46958
1.76336
1.05746
0.351854
38.3776
37.948
37.4483
36.8767
36.2356
35.5242
34.7371
33.8632
32.8874
31.7936
30.57
29.2159
27.7464
26.1904
24.5824
22.9555
21.341
19.7686
18.2671
16.8616
15.5669
14.3851
13.308
12.3212
11.4083
10.5532
9.74201
8.96308
8.20743
7.46822
6.74041
6.02036
5.30552
4.59408
3.88484
3.17698
2.46998
1.76353
1.05748
0.351771
38.1686
37.7867
37.3196
36.7683
36.1371
35.4274
34.6357
33.7539
32.7703
31.6732
30.4549
29.1167
27.6724
26.1471
24.5712
22.9756
21.3904
19.8439
18.3628
16.9691
15.6767
14.4887
13.3997
12.3983
11.4702
10.6011
9.77777
8.98904
8.22576
7.48082
6.74885
6.02585
5.30898
4.59618
3.88605
3.17763
2.4703
1.76366
1.0575
0.351722
37.9676
37.6372
37.2044
36.6748
36.055
35.3488
34.5549
33.6676
32.6785
31.5792
30.365
29.0391
27.6143
26.1128
24.5621
22.9911
21.4288
19.9026
18.4372
17.0527
15.7621
14.5695
13.4714
12.4584
11.5184
10.6383
9.80543
9.00897
8.23969
7.49028
6.75507
6.02981
5.31139
4.59758
3.8868
3.17799
2.47043
1.76369
1.0575
0.351721
37.7977
37.5178
37.1182
36.6093
36.0011
35.2997
34.5058
33.6159
32.6236
31.5228
30.311
28.9924
27.5793
26.0922
24.5567
23.0007
21.4523
19.9382
18.482
17.1029
15.8132
14.6176
13.5137
12.4936
11.5462
10.6593
9.82068
9.01961
8.24683
7.49487
6.75787
6.03141
5.31221
4.59791
3.88686
3.1779
2.4703
1.76356
1.05744
0.351762
37.683
37.4473
37.0757
36.5839
35.9856
35.2893
34.4973
33.6074
32.6142
31.5126
30.3009
28.9837
27.5733
26.0896
24.5575
23.0046
21.4589
19.947
18.4923
17.1137
15.8234
14.6262
13.5201
12.4978
11.5484
10.6598
9.82015
9.0184
8.24528
7.49323
6.7563
6.03
5.311
4.5969
3.88604
3.17726
2.4698
1.76321
1.05725
0.351802
37.6433
37.4451
37.0933
36.6115
36.0189
35.3264
34.5376
33.6503
32.6586
31.5569
30.3428
29.0207
27.603
26.1101
24.5676
23.0039
21.4477
19.9263
18.464
17.0799
15.7867
14.5891
13.4847
12.4656
11.5203
10.6362
9.80085
9.00305
8.23335
7.48414
6.74951
6.02501
5.30738
4.59432
3.88421
3.17597
2.46889
1.76255
1.0568
0.351674
37.7631
37.5299
37.1556
36.66
36.0599
35.3648
34.5768
33.692
32.7032
31.6028
30.387
29.0593
27.6325
26.1282
24.5734
22.9975
21.4298
19.8984
18.4281
17.0392
15.7446
14.5489
13.4488
12.4352
11.4959
10.6174
9.78683
8.99297
8.22633
7.4794
6.74641
6.02305
5.30621
4.59366
3.88387
3.17581
2.46881
1.76249
1.05668
0.351492
37.7963
37.5164
37.1168
36.6078
35.9996
35.298
34.504
33.6139
32.6214
31.5206
30.3087
28.9901
27.5772
26.0904
24.5552
22.9996
21.4515
19.9377
18.4819
17.103
15.8134
14.6179
13.514
12.4939
11.5465
10.6595
9.82091
9.01981
8.247
7.49501
6.75798
6.0315
5.31228
4.59797
3.8869
3.17793
2.47031
1.76357
1.05744
0.351769
37.9041
37.5758
37.1436
36.6142
35.9935
35.2846
34.4864
33.5944
32.6017
31.5016
30.2912
28.9741
27.5631
26.0789
24.5474
22.9961
21.4526
19.9429
18.4906
17.1148
15.8279
14.6343
13.5314
12.5112
11.563
10.6745
9.83398
9.03088
8.25612
7.50235
6.76377
6.03597
5.31569
4.60053
3.8888
3.17933
2.47134
1.76429
1.05787
0.351814
38.0726
37.689
37.2195
36.6662
36.0314
35.3156
34.5156
33.625
32.635
31.5366
30.3249
29.0023
27.5823
26.0876
24.5459
22.9854
21.4336
19.9165
18.4586
17.0803
15.7944
14.6047
13.5073
12.493
11.5502
10.6661
9.8291
9.02845
8.25533
7.50256
6.76453
6.03699
5.31675
4.60153
3.88969
3.18009
2.47194
1.76474
1.05814
0.351855
38.2777
37.8367
37.3285
36.7504
36.1019
35.3807
34.5817
33.6958
32.7113
31.6158
30.4007
29.0665
27.6276
26.1111
24.5479
22.9673
21.3968
19.8628
18.3916
17.0064
15.7208
14.5374
13.4496
12.4464
11.5141
10.6395
9.81011
9.01543
8.24676
7.49717
6.76133
6.03524
5.31593
4.60127
3.88975
3.18029
2.4722
1.76499
1.05832
0.351946
38.4943
37.9991
37.4539
36.8527
36.192
35.4677
34.6723
33.7942
32.818
31.727
30.5075
29.1568
27.6911
26.1442
24.5515
22.9435
21.3471
19.7891
18.2984
16.9031
15.618
14.443
13.3686
12.3802
11.4624
10.6005
9.78171
8.99536
8.23299
7.48802
6.75546
6.03163
5.31383
4.60014
3.88922
3.18012
2.47222
1.76509
1.05846
0.352093
38.6995
38.1568
37.5794
36.9583
36.288
35.5627
34.773
33.9048
32.9391
31.8541
30.6303
29.2609
27.7635
26.1816
24.5558
22.9172
21.2918
19.7059
18.192
16.785
15.5009
14.3362
13.2771
12.3057
11.4041
10.5564
9.74932
8.97226
8.21695
7.47719
6.74835
6.02711
5.31107
4.59855
3.88836
3.17973
2.47209
1.76511
1.05857
0.352274
38.8729
38.2926
37.6896
37.0528
36.3757
35.6509
34.8678
34.0099
33.0551
31.9768
30.7497
29.3621
27.8334
26.2175
24.5601
22.8926
21.2393
19.6263
18.0893
16.6711
15.3884
14.2342
13.1901
12.235
11.3488
10.5146
9.7186
8.95027
8.20162
7.46676
6.74145
6.02268
5.30832
4.59691
3.88745
3.17926
2.47191
1.7651
1.05866
0.352457
38.9983
38.3919
37.7711
37.1238
36.4424
35.7188
34.9413
34.092
33.1462
32.0734
30.8439
29.4423
27.8891
26.2466
24.5642
22.8736
21.1982
19.5638
18.0087
16.5818
15.3004
14.1545
13.1224
12.18
11.3059
10.4821
9.69474
8.93319
8.18968
7.45861
6.73603
6.01917
5.30612
4.59559
3.8867
3.17888
2.47174
1.76507
1.05873
0.352604
39.0641
38.4443
37.8145
37.1618
36.4784
35.7557
34.9814
34.1369
33.196
32.1265
30.8957
29.4865
27.9201
26.2629
24.5667
22.8634
21.1757
19.5295
17.9648
16.5332
15.2524
14.1111
13.0854
12.1501
11.2825
10.4645
9.68175
8.92388
8.18316
7.45417
6.73307
6.01725
5.30492
4.59486
3.88628
3.17866
2.47164
1.76505
1.05876
0.352686
39.0642
38.4444
37.8146
37.162
36.4785
35.7558
34.9815
34.137
33.1962
32.1266
30.8958
29.4866
27.9203
26.2631
24.5669
22.8636
21.1759
19.5297
17.9649
16.5333
15.2525
14.1112
13.0855
12.1501
11.2825
10.4645
9.68175
8.92387
8.18316
7.45416
6.73306
6.01724
5.30491
4.59486
3.88628
3.17865
2.47164
1.76505
1.05876
0.352686
38.9988
38.3923
37.7715
37.1242
36.4428
35.7193
34.9417
34.0924
33.1466
32.074
30.8445
29.4429
27.8897
26.2471
24.5647
22.8741
21.1986
19.5642
18.0091
16.5822
15.3007
14.1547
13.1225
12.1801
11.3059
10.4821
9.69473
8.93316
8.18965
7.45859
6.73601
6.01915
5.30611
4.59558
3.88669
3.17887
2.47173
1.76506
1.05873
0.352604
38.8736
38.2933
37.6902
37.0535
36.3764
35.6517
34.8685
34.0107
33.056
31.9777
30.7506
29.3631
27.8344
26.2184
24.5609
22.8933
21.2399
19.6269
18.0898
16.6715
15.3887
14.2344
13.1903
12.235
11.3488
10.5145
9.71856
8.95023
8.20157
7.46672
6.74141
6.02264
5.30829
4.59689
3.88743
3.17925
2.47189
1.76509
1.05866
0.352457
38.7004
38.1577
37.5803
36.9592
36.2889
35.5637
34.774
33.9059
32.9404
31.8554
30.6317
29.2623
27.7648
26.1828
24.5568
22.9181
21.2925
19.7065
18.1924
16.7854
15.5011
14.3363
13.2772
12.3057
11.404
10.5563
9.74925
8.97218
8.21688
7.47712
6.7483
6.02707
5.31104
4.59852
3.88834
3.17971
2.47207
1.7651
1.05857
0.352275
38.4955
38.0002
37.455
36.8538
36.1932
35.469
34.6736
33.7956
32.8196
31.7287
30.5092
29.1586
27.6928
26.1457
24.5527
22.9445
21.3479
19.7896
18.2987
16.9033
15.618
14.443
13.3685
12.3801
11.4623
10.6004
9.7816
8.99525
8.2329
7.48794
6.75539
6.03157
5.31378
4.6001
3.88919
3.1801
2.4722
1.76508
1.05846
0.352094
38.279
37.838
37.3297
36.7517
36.1032
35.3821
34.5832
33.6975
32.7131
31.6177
30.4027
29.0685
27.6294
26.1127
24.5492
22.9684
21.3976
19.8633
18.3918
17.0064
15.7208
14.5372
13.4495
12.4462
11.5139
10.6393
9.80995
9.01529
8.24664
7.49707
6.76125
6.03517
5.31588
4.60123
3.88972
3.18027
2.47218
1.76497
1.05832
0.351947
38.0741
37.6904
37.2209
36.6676
36.0329
35.3172
34.5173
33.6269
32.637
31.5388
30.3271
29.0045
27.5843
26.0893
24.5473
22.9865
21.4343
19.9169
18.4588
17.0803
15.7943
14.6045
13.507
12.4928
11.5499
10.6659
9.8289
9.02828
8.25519
7.50244
6.76443
6.03691
5.31669
4.60148
3.88965
3.18006
2.47192
1.76473
1.05814
0.351855
37.9056
37.5772
37.145
36.6157
35.9951
35.2862
34.4882
33.5964
32.6038
31.5039
30.2934
28.9763
27.5651
26.0807
24.5489
22.9972
21.4533
19.9433
18.4907
17.1147
15.8277
14.634
13.531
12.5109
11.5627
10.6742
9.83375
9.03069
8.25596
7.50222
6.76366
6.03589
5.31562
4.60048
3.88876
3.17931
2.47132
1.76428
1.05787
0.351814
37.7977
37.5179
37.1182
36.6092
36.0011
35.2997
34.5058
33.6159
32.6236
31.5229
30.3111
28.9924
27.5793
26.0923
24.5568
23.0007
21.4523
19.9381
18.4819
17.1028
15.8131
14.6176
13.5136
12.4935
11.5462
10.6592
9.82067
9.0196
8.24683
7.49487
6.75787
6.03141
5.31221
4.59791
3.88686
3.1779
2.47029
1.76356
1.05744
0.351767
37.7645
37.5313
37.157
36.6614
36.0614
35.3664
34.5785
33.6939
32.7053
31.6051
30.3894
29.0616
27.6347
26.1302
24.575
22.9986
21.4306
19.8987
18.4281
17.039
15.7443
14.5485
13.4484
12.4348
11.4955
10.6171
9.78658
8.99276
8.22616
7.47926
6.7463
6.02297
5.30614
4.59361
3.88383
3.17578
2.46879
1.76248
1.05667
0.351493
37.9315
37.6575
37.2553
36.7424
36.1338
35.4369
34.6521
33.7732
32.7902
31.6925
30.4733
29.1349
27.6906
26.1644
24.5861
22.9867
21.3969
19.8459
18.3603
16.962
15.6647
14.4724
13.3803
12.3772
11.4489
10.5808
9.75935
8.97293
8.21211
7.46958
6.7398
6.01872
5.30344
4.59195
3.88286
3.17523
2.46848
1.76227
1.05649
0.351326
37.9662
37.6358
37.2031
36.6734
36.0535
35.3472
34.5531
33.6657
32.6764
31.577
30.3627
29.0368
27.6122
26.111
24.5606
22.99
21.4281
19.9022
18.437
17.0528
15.7623
14.5698
13.4717
12.4587
11.5187
10.6385
9.80566
9.00916
8.23985
7.49041
6.75517
6.0299
5.31146
4.59763
3.88684
3.17802
2.47045
1.7637
1.0575
0.351728
38.0726
37.689
37.2195
36.6662
36.0314
35.3156
34.5156
33.625
32.6349
31.5366
30.3248
29.0023
27.5822
26.0876
24.5459
22.9854
21.4336
19.9165
18.4586
17.0804
15.7945
14.6048
13.5073
12.4931
11.5502
10.6662
9.82912
9.02847
8.25534
7.50257
6.76454
6.03699
5.31675
4.60154
3.88969
3.18009
2.47195
1.76474
1.05814
0.351855