# vtk DataFile Version 2.0
I need something to put here
ASCII

DATASET STRUCTURED_GRID
DIMENSIONS 41 21 21
POINTS 18081 float
0.000000 0.000000 0.000000
0.100000 0.000000 0.000000
0.200000 0.000000 0.000000
0.300000 0.000000 0.000000
0.400000 0.000000 0.000000
0.500000 0.000000 0.000000
0.600000 0.000000 0.000000
0.700000 0.000000 0.000000
0.800000 0.000000 0.000000
0.900000 0.000000 0.000000
1.000000 0.000000 0.000000
1.100000 0.000000 0.000000
1.200000 0.000000 0.000000
1.300000 0.000000 0.000000
1.400000 0.000000 0.000000
1.500000 0.000000 0.000000
1.600000 0.000000 0.000000
1.700000 0.000000 0.000000
1.800000 0.000000 0.000000
1.900000 0.000000 0.000000
2.000000 0.000000 0.000000
2.100000 0.000000 0.000000
2.200000 0.000000 0.000000
2.300000 0.000000 0.000000
2.400000 0.000000 0.000000
2.500000 0.000000 0.000000
2.600000 0.000000 0.000000
2.700000 0.000000 0.000000
2.800000 0.000000 0.000000
2.900000 0.000000 0.000000
3.000000 0.000000 0.000000
3.100000 0.000000 0.000000
3.200000 0.000000 0.000000
3.300000 0.000000 0.000000
3.400000 0.000000 0.000000
3.500000 0.000000 0.000000
3.600000 0.000000 0.000000
3.700000 0.000000 0.000000
3.800000 0.000000 0.000000
3.900000 0.000000 0.000000
4.000000 0.000000 0.000000
0.000000 0.100000 0.000000
0.100000 0.100000 0.000000
0.200000 0.100000 0.000000
0.300000 0.100000 0.000000
0.400000 0.100000 0.000000
0.500000 0.100000 0.000000
0.600000 0.100000 0.000000
0.700000 0.100000 0.000000
0.800000 0.100000 0.000000
0.900000 0.100000 0.000000
1.000000 0.100000 0.000000
1.100000 0.100000 0.000000
1.200000 0.100000 0.000000
1.300000 0.100000 0.000000
1.400000 0.100000 0.000000
1.500000 0.100000 0.000000
1.600000 0.100000 0.000000
1.700000 0.100000 0.000000
1.800000 0.100000 0.000000
1.900000 0.100000 0.000000
2.000000 0.100000 0.000000
2.100000 0.100000 0.000000
2.200000 0.100000 0.000000
2.300000 0.100000 0.000000
2.400000 0.100000 0.000000
2.500000 0.100000 0.000000
2.600000 0.100000 0.000000
2.700000 0.100000 0.000000
2.800000 0.100000 0.000000
2.900000 0.100000 0.000000
3.000000 0.100000 0.000000
3.100000 0.100000 0.000000
3.200000 0.100000 0.000000
3.300000 0.100000 0.000000
3.400000 0.100000 0.000000
3.500000 0.100000 0.000000
3.600000 0.100000 0.000000
3.700000 0.100000 0.000000
3.800000 0.100000 0.000000
3.900000 0.100000 0.000000
4.000000 0.100000 0.000000
0.000000 0.200000 0.000000
0.100000 0.200000 0.000000
0.200000 0.200000 0.000000
0.300000 0.200000 0.000000
0.400000 0.200000 0.000000
0.500000 0.200000 0.000000
0.600000 0.200000 0.000000
0.700000 0.200000 0.000000
0.800000 0.200000 0.000000
0.900000 0.200000 0.000000
1.000000 0.200000 0.000000
1.100000 0.200000 0.000000
1.200000 0.200000 0.000000
1.300000 0.200000 0.000000
1.400000 0.200000 0.000000
1.500000 0.200000 0.000000
1.600000 0.200000 0.000000
1.700000 0.200000 0.000000
1.800000 0.200000 0.000000
1.900000 0.200000 0.000000
2.000000 0.200000 0.000000
2.100000 0.200000 0.000000
2.200000 0.200000 0.000000
2.300000 0.200000 0.000000
2.400000 0.200000 0.000000
2.500000 0.200000 0.000000
2.600000 0.200000 0.000000
2.700000 0.200000 0.000000
2.800000 0.200000 0.000000
2.900000 0.200000 0.000000
3.000000 0.200000 0.000000
3.100000 0.200000 0.000000
3.200000 0.200000 0.000000
3.300000 0.200000 0.000000
3.400000 0.200000 0.000000
3.500000 0.200000 0.000000
3.600000 0.200000 0.000000
3.700000 0.200000 0.000000
3.800000 0.200000 0.000000
3.900000 0.200000 0.000000
4.000000 0.200000 0.000000
0.000000 0.300000 0.000000
0.100000 0.300000 0.000000
0.200000 0.300000 0.000000
0.300000 0.300000 0.000000
0.400000 0.300000 0.000000
0.500000 0.300000 0.000000
0.600000 0.300000 0.000000
0.700000 0.300000 0.000000
0.800000 0.300000 0.000000
0.900000 0.300000 0.000000
1.000000 0.300000 0.000000
1.100000 0.300000 0.000000
1.200000 0.300000 0.000000
1.300000 0.300000 0.000000
1.400000 0.300000 0.000000
1.500000 0.300000 0.000000
1.600000 0.300000 0.000000
1.700000 0.300000 0.000000
1.800000 0.300000 0.000000
1.900000 0.300000 0.000000
2.000000 0.300000 0.000000
2.100000 0.300000 0.000000
2.200000 0.300000 0.000000
2.300000 0.300000 0.000000
2.400000 0.300000 0.000000
2.500000 0.300000 0.000000
2.600000 0.300000 0.000000
2.700000 0.300000 0.000000
2.800000 0.300000 0.000000
2.900000 0.300000 0.000000
3.000000 0.300000 0.000000
3.100000 0.300000 0.000000
3.200000 0.300000 0.000000
3.300000 0.300000 0.000000
3.400000 0.300000 0.000000
3.500000 0.300000 0.000000
3.600000 0.300000 0.000000
3.700000 0.300000 0.000000
3.800000 0.300000 0.000000
3.900000 0.300000 0.000000
4.000000 0.300000 0.000000
0.000000 0.400000 0.000000
0.100000 0.400000 0.000000
0.200000 0.400000 0.000000
0.300000 0.400000 0.000000
0.400000 0.400000 0.000000
0.500000 0.400000 0.000000
0.600000 0.400000 0.000000
0.700000 0.400000 0.000000
0.800000 0.400000 0.000000
0.900000 0.400000 0.000000
1.000000 0.400000 0.000000
1.100000 0.400000 0.000000
1.200000 0.400000 0.000000
1.300000 0.400000 0.000000
1.400000 0.400000 0.000000
1.500000 0.400000 0.000000
1.600000 0.400000 0.000000
1.700000 0.400000 0.000000
1.800000 0.400000 0.000000
1.900000 0.400000 0.000000
2.000000 0.400000 0.000000
2.100000 0.400000 0.000000
2.200000 0.400000 0.000000
2.300000 0.400000 0.000000
2.400000 0.400000 0.000000
2.500000 0.400000 0.000000
2.600000 0.400000 0.000000
2.700000 0.400000 0.000000
2.800000 0.400000 0.000000
2.900000 0.400000 0.000000
3.000000 0.400000 0.000000
3.100000 0.400000 0.000000
3.200000 0.400000 0.000000
3.300000 0.400000 0.000000
3.400000 0.400000 0.000000
3.500000 0.400000 0.000000
3.600000 0.400000 0.000000
3.700000 0.400000 0.000000
3.800000 0.400000 0.000000
3.900000 0.400000 0.000000
4.000000 0.400000 0.000000
0.000000 0.500000 0.000000
0.100000 0.500000 0.000000
0.200000 0.500000 0.000000
0.300000 0.500000 0.000000
0.400000 0.500000 0.000000
0.500000 0.500000 0.000000
0.600000 0.500000 0.000000
0.700000 0.500000 0.000000
0.800000 0.500000 0.000000
0.900000 0.500000 0.000000
1.000000 0.500000 0.000000
1.100000 0.500000 0.000000
1.200000 0.500000 0.000000
1.300000 0.500000 0.000000
1.400000 0.500000 0.000000
1.500000 0.500000 0.000000
1.600000 0.500000 0.000000
1.700000 0.500000 0.000000
1.800000 0.500000 0.000000
1.900000 0.500000 0.000000
2.000000 0.500000 0.000000
2.100000 0.500000 0.000000
2.200000 0.500000 0.000000
2.300000 0.500000 0.000000
2.400000 0.500000 0.000000
2.500000 0.500000 0.000000
2.600000 0.500000 0.000000
2.700000 0.500000 0.000000
2.800000 0.500000 0.000000
2.900000 0.500000 0.000000
3.000000 0.500000 0.000000
3.100000 0.500000 0.000000
3.200000 0.500000 0.000000
3.300000 0.500000 0.000000
3.400000 0.500000 0.000000
3.500000 0.500000 0.000000
3.600000 0.500000 0.000000
3.700000 0.500000 0.000000
3.800000 0.500000 0.000000
3.900000 0.500000 0.000000
4.000000 0.500000 0.000000
0.000000 0.600000 0.000000
0.100000 0.600000 0.000000
0.200000 0.600000 0.000000
0.300000 0.600000 0.000000
0.400000 0.600000 0.000000
0.500000 0.600000 0.000000
0.600000 0.600000 0.000000
0.700000 0.600000 0.000000
0.800000 0.600000 0.000000
0.900000 0.600000 0.000000
1.000000 0.600000 0.000000
1.100000 0.600000 0.000000
1.200000 0.600000 0.000000
1.300000 0.600000 0.000000
1.400000 0.600000 0.000000
1.500000 0.600000 0.000000
1.600000 0.600000 0.000000
1.700000 0.600000 0.000000
1.800000 0.600000 0.000000
1.900000 0.600000 0.000000
2.000000 0.600000 0.000000
2.100000 0.600000 0.000000
2.200000 0.600000 0.000000
2.300000 0.600000 0.000000
2.400000 0.600000 0.000000
2.500000 0.600000 0.000000
2.600000 0.600000 0.000000
2.700000 0.600000 0.000000
2.800000 0.600000 0.000000
2.900000 0.600000 0.000000
3.000000 0.600000 0.000000
3.100000 0.600000 0.000000
3.200000 0.600000 0.000000
3.300000 0.600000 0.000000
3.400000 0.600000 0.000000
3.500000 0.600000 0.000000
3.600000 0.600000 0.000000
3.700000 0.600000 0.000000
3.800000 0.600000 0.000000
3.900000 0.600000 0.000000
4.000000 0.600000 0.000000
0.000000 0.700000 0.000000
0.100000 0.700000 0.000000
0.200000 0.700000 0.000000
0.300000 0.700000 0.000000
0.400000 0.700000 0.000000
0.500000 0.700000 0.000000
0.600000 0.700000 0.000000
0.700000 0.700000 0.000000
0.800000 0.700000 0.000000
0.900000 0.700000 0.000000
1.000000 0.700000 0.000000
1.100000 0.700000 0.000000
1.200000 0.700000 0.000000
1.300000 0.700000 0.000000
1.400000 0.700000 0.000000
1.500000 0.700000 0.000000
1.600000 0.700000 0.000000
1.700000 0.700000 0.000000
1.800000 0.700000 0.000000
1.900000 0.700000 0.000000
2.000000 0.700000 0.000000
2.100000 0.700000 0.000000
2.200000 0.700000 0.000000
2.300000 0.700000 0.000000
2.400000 0.700000 0.000000
2.500000 0.700000 0.000000
2.600000 0.700000 0.000000
2.700000 0.700000 0.000000
2.800000 0.700000 0.000000
2.900000 0.700000 0.000000
3.000000 0.700000 0.000000
3.100000 0.700000 0.000000
3.200000 0.700000 0.000000
3.300000 0.700000 0.000000
3.400000 0.700000 0.000000
3.500000 0.700000 0.000000
3.600000 0.700000 0.000000
3.700000 0.700000 0.000000
3.800000 0.700000 0.000000
3.900000 0.700000 0.000000
4.000000 0.700000 0.000000
0.000000 0.800000 0.000000
0.100000 0.800000 0.000000
0.200000 0.800000 0.000000
0.300000 0.800000 0.000000
0.400000 0.800000 0.000000
0.500000 0.800000 0.000000
0.600000 0.800000 0.000000
0.700000 0.800000 0.000000
0.800000 0.800000 0.000000
0.900000 0.800000 0.000000
1.000000 0.800000 0.000000
1.100000 0.800000 0.000000
1.200000 0.800000 0.000000
1.300000 0.800000 0.000000
1.400000 0.800000 0.000000
1.500000 0.800000 0.000000
1.600000 0.800000 0.000000
1.700000 0.800000 0.000000
1.800000 0.800000 0.000000
1.900000 0.800000 0.000000
2.000000 0.800000 0.000000
2.100000 0.800000 0.000000
2.200000 0.800000 0.000000
2.300000 0.800000 0.000000
2.400000 0.800000 0.000000
2.500000 0.800000 0.000000
2.600000 0.800000 0.000000
2.700000 0.800000 0.000000
2.800000 0.800000 0.000000
2.900000 0.800000 0.000000
3.000000 0.800000 0.000000
3.100000 0.800000 0.000000
3.200000 0.800000 0.000000
3.300000 0.800000 0.000000
3.400000 0.800000 0.000000
3.500000 0.800000 0.000000
3.600000 0.800000 0.000000
[...]
CELL_DATA 16000
SCALARS pressure float 1
LOOKUP_TABLE default
26.7113
26.5288
26.1908
25.7393
25.2075
24.6192
23.9914
23.3355
22.6596
21.9687
21.2665
20.5549
19.8353
19.1088
18.376
17.6379
16.8956
16.1508
15.4052
14.6607
13.9189
13.181
12.4478
11.7193
10.9954
10.2755
9.55895
8.84514
8.13346
7.42339
6.71451
6.00646
5.29902
4.59197
3.8852
3.1786
2.47212
1.76572
1.05937
0.35308
26.7698
26.56
26.2075
25.7481
25.212
24.6215
23.9924
23.3359
22.6596
21.9687
21.2663
20.5548
19.8353
19.1088
18.3761
17.638
16.8957
16.1508
15.4051
14.6605
13.9186
13.1808
12.4476
11.7192
10.9953
10.2754
9.55893
8.84515
8.13349
7.42343
6.71454
6.0065
5.29905
4.592
3.88522
3.17862
2.47214
1.76572
1.05937
0.353073
26.8899
26.6408
26.2614
25.7842
25.2361
24.6377
24.0034
23.3436
22.6651
21.9728
21.2698
20.5578
19.8381
19.1114
18.3783
17.6397
16.8967
16.151
15.4045
14.6591
13.9168
13.1787
12.4455
11.7172
10.9936
10.274
9.55784
8.84433
8.13289
7.42301
6.71425
6.00631
5.29892
4.59192
3.88518
3.1786
2.47212
1.76571
1.05936
0.353057
27.046
26.7525
26.34
25.8389
25.2741
24.6641
24.022
23.3568
22.675
21.9805
21.2762
20.5635
19.8433
19.1161
18.3824
17.6429
16.8987
16.1514
15.4033
14.6566
13.9132
13.1747
12.4415
11.7135
10.9904
10.2714
9.55578
8.84277
8.13174
7.42218
6.71368
6.00591
5.29866
4.59176
3.88507
3.17853
2.47208
1.76569
1.05934
0.353043
27.2161
26.8792
26.4319
25.9045
25.3207
24.6972
24.0456
23.3741
22.688
21.9909
21.285
20.5713
19.8505
19.1228
18.3882
17.6474
16.9013
16.1519
15.4015
14.6528
13.9081
13.169
12.4358
11.7083
10.9859
10.2678
9.5529
8.84058
8.13013
7.42103
6.71287
6.00536
5.2983
4.59152
3.88492
3.17844
2.47203
1.76565
1.05932
0.353033
27.3822
27.0065
26.5263
25.9733
25.3703
24.7329
24.0715
23.3932
22.7027
22.0028
21.2952
20.5806
19.8592
19.1308
18.3952
17.6528
16.9045
16.1523
15.399
14.648
13.9017
13.1619
12.4288
11.702
10.9805
10.2634
9.54947
8.83799
8.12822
7.41966
6.71191
6.00471
5.29786
4.59123
3.88474
3.17833
2.47196
1.76562
1.0593
0.353027
27.5304
27.1223
26.6138
26.0381
25.4176
24.7673
24.0968
23.4122
22.7174
22.0149
21.3058
20.5903
19.8684
19.1393
18.4026
17.6585
16.9077
16.1525
15.3962
14.6426
13.8947
13.1542
12.4213
11.6953
10.9748
10.2587
9.54588
8.83528
8.12624
7.41825
6.71093
6.00404
5.29741
4.59094
3.88455
3.17821
2.47189
1.76558
1.05928
0.353026
27.6502
27.2174
26.6866
26.0925
25.4578
24.7969
24.1187
23.4287
22.7305
22.0258
21.3154
20.5993
19.8768
19.1472
18.4095
17.6637
16.9106
16.1526
15.3934
14.6374
13.888
13.147
12.4143
11.689
10.9696
10.2545
9.54261
8.83283
8.12445
7.41697
6.71004
6.00343
5.29701
4.59068
3.88439
3.17811
2.47183
1.76555
1.05927
0.353026
27.7341
27.2846
26.7385
26.1316
25.4869
24.8185
24.1348
23.4411
22.7403
22.0341
21.3228
20.6062
19.8834
19.1533
18.4149
17.6677
16.9129
16.1527
15.3912
14.6333
13.8828
13.1414
12.4089
11.6842
10.9655
10.2513
9.54013
8.83098
8.1231
7.41601
6.70937
6.00298
5.29671
4.59048
3.88426
3.17804
2.47179
1.76552
1.05926
0.353027
27.7773
27.3195
26.7655
26.1522
25.5023
24.83
24.1435
23.4478
22.7458
22.0387
21.327
20.6102
19.8872
19.1568
18.4179
17.6701
16.9142
16.1528
15.39
14.6311
13.88
13.1384
12.406
11.6816
10.9634
10.2496
9.53882
8.83
8.1224
7.41551
6.70903
6.00274
5.29655
4.59038
3.8842
3.178
2.47177
1.76551
1.05925
0.353028
27.7775
27.3197
26.7658
26.1524
25.5026
24.8302
24.1438
23.4481
22.7461
22.0391
21.3274
20.6106
19.8876
19.1572
18.4183
17.6705
16.9146
16.1531
15.3903
14.6314
13.8802
13.1385
12.4062
11.6818
10.9635
10.2497
9.53889
8.83005
8.12244
7.41554
6.70905
6.00276
5.29656
4.59039
3.88421
3.178
2.47177
1.76551
1.05925
0.353028
27.7347
27.2853
26.7391
26.1323
25.4877
24.8193
24.1357
23.442
22.7414
22.0352
21.324
20.6074
19.8847
19.1545
18.416
17.6689
16.9139
16.1536
15.392
14.6341
13.8834
13.1419
12.4094
11.6846
10.9659
10.2516
9.54033
8.83114
8.12323
7.41611
6.70944
6.00303
5.29674
4.59051
3.88428
3.17805
2.47179
1.76553
1.05926
0.353027
27.6512
27.2184
26.6876
26.0936
25.459
24.7981
24.12
23.4303
22.7322
22.0276
21.3173
20.6013
19.8788
19.1491
18.4114
17.6655
16.9123
16.1542
15.3948
14.6386
13.8891
13.1479
12.4151
11.6896
10.9701
10.2549
9.54294
8.83309
8.12465
7.41712
6.71015
6.00352
5.29707
4.59072
3.88441
3.17813
2.47184
1.76555
1.05927
0.353025
27.5318
27.1237
26.6152
26.0395
25.4192
24.769
24.0986
23.4141
22.7196
22.0173
21.3083
20.593
19.871
19.1419
18.4052
17.6609
16.91
16.1546
15.3981
14.6442
13.8961
13.1554
12.4223
11.6961
10.9755
10.2593
9.54632
8.83563
8.12651
7.41845
6.71108
6.00415
5.29749
4.59099
3.88459
3.17823
2.4719
1.76558
1.05928
0.353024
27.3839
27.0081
26.528
25.9751
25.3722
24.7348
24.0736
23.3956
22.7053
22.0056
21.2982
20.5837
19.8624
19.134
18.3983
17.6557
16.9072
16.1548
15.4012
14.6499
13.9034
13.1633
12.43
11.703
10.9813
10.264
9.54999
8.83839
8.12854
7.4199
6.71209
6.00484
5.29795
4.59129
3.88478
3.17835
2.47197
1.76562
1.0593
0.353025
27.218
26.8811
26.4338
25.9065
25.3227
24.6993
24.048
23.3767
22.6908
21.994
21.2882
20.5748
19.8541
19.1263
18.3917
17.6507
16.9044
16.1547
15.4039
14.655
13.91
13.1706
12.4371
11.7094
10.9868
10.2685
9.55348
8.84104
8.13048
7.42129
6.71306
6.0055
5.29839
4.59158
3.88496
3.17846
2.47203
1.76565
1.05931
0.35303
27.048
26.7545
26.342
25.841
25.2763
24.6664
24.0245
23.3596
22.678
21.9838
21.2796
20.5671
19.847
19.1198
18.3861
17.6464
16.9019
16.1544
15.4059
14.6589
13.9153
13.1764
12.4429
11.7147
10.9914
10.2722
9.5564
8.84325
8.13211
7.42246
6.71388
6.00606
5.29876
4.59182
3.88511
3.17855
2.47209
1.76568
1.05933
0.353039
26.8919
26.6428
26.2635
25.7862
25.2383
24.64
24.0059
23.3463
22.6681
21.9761
21.2732
20.5614
19.8418
19.1151
18.382
17.6433
16.9001
16.1541
15.4072
14.6615
13.9189
13.1804
12.4469
11.7184
10.9946
10.2748
9.55847
8.84482
8.13326
7.42328
6.71445
6.00645
5.29902
4.59198
3.88521
3.17861
2.47212
1.76571
1.05935
0.353052
26.7718
26.5621
26.2095
25.7502
25.2142
24.6238
23.9949
23.3386
22.6625
21.9718
21.2698
20.5584
19.839
19.1126
18.3798
17.6415
16.899
16.1538
15.4078
14.6629
13.9207
13.1826
12.4491
11.7204
10.9963
10.2762
9.55955
8.84563
8.13385
7.42369
6.71473
6.00663
5.29913
4.59205
3.88525
3.17863
2.47213
1.76571
1.05936
0.353066
26.7133
26.5308
26.1928
25.7413
25.2095
24.6214
23.9938
23.3381
22.6624
21.9718
21.2698
20.5584
19.839
19.1124
18.3796
17.6414
16.8989
16.1538
15.4079
14.663
13.9209
13.1828
12.4492
11.7205
10.9964
10.2763
9.55955
8.8456
8.13381
7.42365
6.71468
6.00659
5.29909
4.59202
3.88522
3.17861
2.47211
1.7657
1.05935
0.353072
26.7698
26.56
26.2075
25.7481
25.212
24.6215
23.9924
23.3359
22.6596
21.9687
21.2663
20.5548
19.8353
19.1088
18.3761
17.638
16.8957
16.1508
15.4051
14.6605
13.9186
13.1808
12.4476
11.7192
10.9953
10.2754
9.55893
8.84515
8.13349
7.42343
6.71454
6.0065
5.29905
4.592
3.88522
3.17862
2.47214
1.76572
1.05937
0.353073
26.8202
26.5708
26.2012
25.7361
25.1993
24.6099
23.9825
23.3277
22.6529
21.9631
21.2617
20.5508
19.8319
19.1059
18.3737
17.6362
16.8945
16.1503
15.4053
14.6613
13.9199
13.1824
12.4494
11.7209
10.997
10.2769
9.56019
8.84619
8.13433
7.42408
6.71505
6.00688
5.29933
4.5922
3.88537
3.17873
2.47221
1.76578
1.05941
0.353084
26.9402
26.6419
26.2425
25.7597
25.2124
24.617
23.9862
23.3295
22.6536
21.9633
21.2617
20.5509
19.832
19.1061
18.374
17.6364
16.8946
16.1502
15.405
14.6608
13.9193
13.1818
12.4488
11.7205
10.9966
10.2767
9.5601
8.84618
8.13436
7.42415
6.71512
6.00695
5.2994
4.59227
3.88542
3.17877
2.47225
1.7658
1.05942
0.35308
27.1022
26.75
26.3144
25.8073
25.2438
24.6377
23.9999
23.3387
22.6601
21.9681
21.2656
20.5542
19.8351
19.1089
18.3764
17.6383
16.8957
16.1503
15.4041
14.659
13.917
13.1792
12.4462
11.7182
10.9947
10.2751
9.55889
8.84529
8.13373
7.42372
6.71484
6.00678
5.29929
4.59221
3.88539
3.17876
2.47224
1.76581
1.05942
0.353076
27.2806
26.876
26.4028
25.8688
25.2863
24.6671
24.0203
23.3532
22.6706
21.9762
21.2723
20.56
19.8404
19.1138
18.3806
17.6415
16.8976
16.1506
15.4026
14.6561
13.9131
13.1749
12.442
11.7143
10.9914
10.2724
9.55678
8.8437
8.13258
7.4229
6.71428
6.0064
5.29905
4.59206
3.88531
3.17871
2.47222
1.76579
1.05942
0.353075
27.4552
27.0039
26.4954
25.9351
25.3334
24.7004
24.0441
23.3703
22.6835
21.9864
21.2807
20.5676
19.8473
19.1201
18.386
17.6456
16.8999
16.1508
15.4006
14.6523
13.9081
13.1694
12.4366
11.7094
10.9871
10.269
9.5541
8.84167
8.13109
7.42184
6.71354
6.0059
5.29872
4.59185
3.88518
3.17863
2.47218
1.76577
1.05941
0.353078
27.6108
27.1207
26.5819
25.9982
25.3791
24.7333
24.0678
23.3878
22.6968
21.9971
21.2898
20.5757
19.8548
19.1269
18.3919
17.65
16.9024
16.1509
15.3983
14.648
13.9025
13.1633
12.4306
11.704
10.9826
10.2653
9.55121
8.83949
8.12949
7.42069
6.71274
6.00536
5.29836
4.59162
3.88503
3.17855
2.47213
1.76575
1.0594
0.353083
27.7364
27.2167
26.6541
26.0516
25.4181
24.7617
24.0887
23.4034
22.7088
22.0068
21.2982
20.5833
19.8618
19.1333
18.3974
17.6542
16.9047
16.1509
15.396
14.6438
13.8972
13.1575
12.425
11.699
10.9784
10.2619
9.54855
8.83748
8.12801
7.41964
6.71201
6.00486
5.29803
4.5914
3.8849
3.17847
2.47208
1.76572
1.05939
0.35309
27.8243
27.2846
26.7056
26.0902
25.4466
24.7827
24.1042
23.415
22.7179
22.0143
21.3047
20.5892
19.8673
19.1384
18.4017
17.6574
16.9065
16.1509
15.3942
14.6405
13.893
13.153
12.4207
11.6952
10.9751
10.2593
9.54652
8.83596
8.1269
7.41885
6.71145
6.00448
5.29778
4.59124
3.88479
3.1784
2.47205
1.76571
1.05939
0.353095
27.8696
27.3198
26.7326
26.1104
25.4617
24.7938
24.1125
23.4214
22.723
22.0185
21.3084
20.5926
19.8705
19.1413
18.4043
17.6594
16.9075
16.151
15.3933
14.6388
13.8908
13.1507
12.4184
11.6931
10.9734
10.2579
9.54545
8.83516
8.12631
7.41843
6.71116
6.00429
5.29765
4.59115
3.88474
3.17837
2.47203
1.7657
1.05938
0.353098
27.8698
27.32
26.7328
26.1106
25.4619
24.7941
24.1128
23.4217
22.7233
22.0188
21.3088
20.593
19.8709
19.1417
18.4046
17.6597
16.9079
16.1513
15.3936
14.639
13.891
13.1508
12.4186
11.6932
10.9735
10.258
9.54552
8.83521
8.12636
7.41846
6.71119
6.00431
5.29766
4.59116
3.88475
3.17838
2.47203
1.7657
1.05938
0.353097
27.825
27.2852
26.7063
26.0908
25.4473
24.7834
24.105
23.4159
22.7189
22.0153
21.3058
20.5904
19.8685
19.1395
18.4028
17.6585
16.9074
16.1518
15.395
14.6412
13.8936
13.1536
12.4212
11.6955
10.9754
10.2595
9.54672
8.83611
8.12702
7.41894
6.71152
6.00454
5.29782
4.59126
3.88481
3.17841
2.47205
1.76571
1.05938
0.353093
27.7375
27.2177
26.6551
26.0527
25.4192
24.7629
24.09
23.4048
22.7104
22.0085
21.3
20.5851
19.8637
19.1351
18.3992
17.6559
16.9063
16.1524
15.3973
14.645
13.8982
13.1584
12.4258
11.6996
10.9788
10.2623
9.54887
8.83774
8.12821
7.41979
6.71212
6.00495
5.29809
4.59144
3.88492
3.17848
2.47209
1.76573
1.05939
0.353086
27.6122
27.1221
26.5833
25.9996
25.3805
24.7348
24.0695
23.3897
22.6989
21.9992
21.2921
20.5781
19.8572
19.1293
18.3942
17.6523
16.9045
16.1528
15.4001
14.6495
13.9038
13.1644
12.4316
11.7048
10.9832
10.2658
9.55163
8.83983
8.12975
7.42089
6.71289
6.00547
5.29844
4.59167
3.88507
3.17857
2.47214
1.76575
1.05939
0.353079
27.4568
27.0055
26.4971
25.9368
25.3352
24.7023
24.0461
23.3726
22.6859
21.989
21.2835
20.5704
19.8502
19.123
18.3888
17.6483
16.9024
16.1531
15.4027
14.6541
13.9097
13.1707
12.4377
11.7103
10.9879
10.2696
9.55461
8.84207
8.1314
7.42208
6.71372
6.00603
5.29881
4.59191
3.88522
3.17866
2.47219
1.76577
1.0594
0.353072
27.2825
26.8779
26.4047
25.8707
25.2883
24.6692
24.0226
23.3556
22.6733
21.9791
21.2753
20.5632
19.8437
19.117
18.3838
17.6445
16.9004
16.1532
15.405
14.6582
13.9149
13.1764
12.4433
11.7154
10.9922
10.2732
9.55736
8.84415
8.13292
7.42316
6.71447
6.00654
5.29915
4.59212
3.88535
3.17873
2.47223
1.76579
1.05941
0.353069
27.1042
26.752
26.3164
25.8093
25.2459
24.6399
24.0023
23.3413
22.6629
21.9711
21.2688
20.5576
19.8385
19.1124
18.3798
17.6416
16.8988
16.1532
15.4066
14.6613
13.9189
13.1808
12.4476
11.7193
10.9956
10.2759
9.5595
8.84576
8.1341
7.42399
6.71504
6.00692
5.29939
4.59227
3.88543
3.17878
2.47225
1.7658
1.05941
0.353069
26.9423
26.6439
26.2445
25.7617
25.2145
24.6192
23.9886
23.3321
22.6565
21.9664
21.265
20.5543
19.8356
19.1097
18.3775
17.6398
16.8978
16.1531
15.4076
14.6631
13.9213
13.1835
12.4502
11.7217
10.9976
10.2775
9.56072
8.84666
8.13473
7.42442
6.71532
6.00709
5.29949
4.59233
3.88545
3.17878
2.47225
1.7658
1.05941
0.353073
26.8223
26.5728
26.2032
25.7382
25.2014
24.6121
23.9849
23.3304
22.6558
21.9662
21.265
20.5543
19.8355
19.1096
18.3773
17.6396
16.8978
16.1533
15.408
14.6636
13.922
13.1841
12.4508
11.7221
10.9979
10.2777
9.5608
8.84666
8.13468
7.42435
6.71523
6.00701
5.29941
4.59225
3.88539
3.17873
2.47221
1.76577
1.05939
0.353075
26.7718
26.562
26.2094
25.7501
25.2141
24.6236
23.9947
23.3384
22.6624
21.9716
21.2696
20.5582
19.8389
19.1124
18.3796
17.6414
16.8989
16.1537
15.4077
14.6628
13.9206
13.1825
12.449
11.7203
10.9962
10.2762
9.55951
8.84559
8.13382
7.42367
6.71471
6.00661
5.29912
4.59204
3.88524
3.17862
2.47212
1.76571
1.05935
0.353061
26.8899
26.6408
26.2614
25.7842
25.2361
24.6377
24.0034
23.3436
22.6651
21.9728
21.2698
20.5578
19.8381
19.1114
18.3783
17.6397
16.8967
16.151
15.4045
14.6591
13.9168
13.1787
12.4455
11.7172
10.9936
10.274
9.55784
8.84433
8.13289
7.42301
6.71425
6.00631
5.29892
4.59192
3.88518
3.1786
2.47212
1.76571
1.05936
0.353057
26.9402
26.6419
26.2425
25.7597
25.2124
24.617
23.9862
23.3295
22.6536
21.9633
21.2617
20.5509
19.832
19.1061
18.374
17.6364
16.8946
16.1502
15.405
14.6608
13.9193
13.1818
12.4488
11.7205
10.9966
10.2767
9.5601
8.84618
8.13436
7.42415
6.71512
6.00695
5.2994
4.59227
3.88542
3.17877
2.47225
1.7658
1.05942
0.35308
27.0606
26.7078
26.2758
25.7747
25.2176
24.6172
23.9841
23.3265
22.6504
21.9603
21.259
20.5485
19.83
19.1045
18.3727
17.6355
16.894
16.1499
15.4048
14.6609
13.9196
13.1823
12.4494
11.7213
10.9974
10.2775
9.56085
8.84685
8.13494
7.42463
6.71551
6.00727
5.29964
4.59245
3.88557
3.17888
2.47233
1.76586
1.05946
0.353085
27.2261
26.8145
26.3435
25.817
25.2438
24.6332
23.9937
23.3322
22.6539
21.9625
21.2606
20.5499
19.8314
19.1059
18.374
17.6365
16.8946
16.1498
15.404
14.6594
13.9179
13.1804
12.4478
11.7199
10.9964
10.2767
9.56031
8.84652
8.13475
7.42455
6.7155
6.00729
5.29968
4.5925
3.88561
3.17892
2.47236
1.76589
1.05948
0.353088
27.4104
26.9414
26.43
25.8755
25.2829
24.6593
24.0112
23.3441
22.6623
21.9688
21.2657
20.5544
19.8356
19.1098
18.3775
17.6392
16.8961
16.1498
15.4025
14.6567
13.9143
13.1767
12.4442
11.7167
10.9937
10.2747
9.55878
8.8454
8.13398
7.42403
6.71516
6.00709
5.29957
4.59245
3.88559
3.17892
2.47237
1.7659
1.05949
0.353095
27.5918
27.0714
26.5221
25.9401
25.3279
24.6905
24.033
23.3595
22.6736
21.9775
21.273
20.5609
19.8416
19.1154
18.3824
17.643
16.8982
16.1498
15.4003
14.6527
13.9093
13.1714
12.4392
11.7123
10.9901
10.2718
9.55657
8.84377
8.13281
7.42322
6.71462
6.00673
5.29935
4.59231
3.88552
3.17888
2.47236
1.7659
1.05949
0.353107
27.754
27.1906
26.6088
26.0024
25.3723
24.722
24.0554
23.3758
22.6858
21.9872
21.2812
20.5683
19.8486
19.1219
18.3881
17.6473
16.9006
16.1498
15.3977
14.648
13.9036
13.1654
12.4335
11.7074
10.986
10.2685
9.55409
8.84193
8.13149
7.42229
6.71398
6.00631
5.29907
4.59214
3.88542
3.17883
2.47233
1.7659
1.0595
0.353121
27.8851
27.2888
26.6814
26.0554
25.4106
24.7496
24.0754
23.3905
22.697
21.9963
21.289
20.5754
19.8553
19.1281
18.3935
17.6515
16.9029
16.1497
15.3949
14.6433
13.8979
13.1596
12.4281
11.7027
10.9821
10.2655
9.55175
8.8402
8.13024
7.42141
6.71338
6.0059
5.29881
4.59198
3.88532
3.17877
2.47231
1.76589
1.0595
0.353135
27.9768
27.3584
26.7334
26.0938
25.4387
24.77
24.0903
23.4016
22.7057
22.0034
21.2952
20.5811
19.8606
19.1331
18.3978
17.6547
16.9046
16.1494
15.3926
14.6396
13.8933
13.1549
12.4239
11.699
10.9791
10.2631
9.54995
8.83887
8.12928
7.42073
6.71291
6.00559
5.29861
4.59185
3.88524
3.17873
2.47228
1.76588
1.0595
0.353146
28.024
27.3944
26.7606
26.114
25.4536
24.781
24.0984
23.4077
22.7105
22.0074
21.2988
20.5844
19.8638
19.136
18.4003
17.6566
16.9056
16.1494
15.3915
14.6375
13.8909
13.1525
12.4216
11.6971
10.9776
10.2619
9.549
8.83817
8.12877
7.42038
6.71267
6.00543
5.29851
4.59179
3.8852
3.17871
2.47227
1.76587
1.0595
0.353152
28.0242
27.3946
26.7608
26.1142
25.4538
24.7812
24.0986
23.408
22.7108
22.0077
21.2991
20.5848
19.8641
19.1364
18.4007
17.6569
16.9059
16.1496
15.3917
14.6378
13.8911
13.1526
12.4217
11.6972
10.9777
10.2619
9.54907
8.83822
8.12881
7.42041
6.7127
6.00545
5.29852
4.59179
3.88521
3.17871
2.47227
1.76587
1.0595
0.353151
27.9775
27.359
26.7341
26.0945
25.4394
24.7708
24.0911
23.4025
22.7066
22.0044
21.2963
20.5822
19.8617
19.1342
18.3989
17.6557
16.9055
16.1503
15.3934
14.6402
13.8939
13.1555
12.4243
11.6994
10.9794
10.2634
9.55014
8.83902
8.1294
7.42083
6.71298
6.00565
5.29865
4.59188
3.88526
3.17874
2.47229
1.76588
1.0595
0.353143
27.8862
27.2899
26.6825
26.0565
25.4117
24.7508
24.0766
23.3919
22.6985
21.9979
21.2908
20.5772
19.8571
19.1299
18.3952
17.6531
16.9044
16.1511
15.3962
14.6444
13.8988
13.1604
12.4288
11.7033
10.9826
10.2659
9.55206
8.84045
8.13043
7.42156
6.71349
6.00599
5.29887
4.59202
3.88535
3.17879
2.47231
1.76589
1.0595
0.35313
27.7555
27.192
26.6102
26.0038
25.3738
24.7236
24.0571
23.3776
22.6878
21.9894
21.2835
20.5707
19.851
19.1243
18.3904
17.6495
16.9027
16.1517
15.3994
14.6495
13.9049
13.1665
12.4345
11.7081
10.9867
10.2691
9.5545
8.84226
8.13175
7.42249
6.71413
6.00642
5.29915
4.5922
3.88545
3.17885
2.47234
1.7659
1.05949
0.353114
27.5936
27.073
26.5238
25.9418
25.3297
24.6924
24.035
23.3617
22.6759
21.9801
21.2757
20.5637
19.8445
19.1183
18.3852
17.6456
16.9007
16.1521
15.4023
14.6545
13.9109
13.1727
12.4403
11.7133
10.9909
10.2724
9.55707
8.84417
8.13312
7.42345
6.71479
6.00686
5.29944
4.59237
3.88556
3.17891
2.47237
1.76591
1.05949
0.353098
27.4124
26.9433
26.4319
25.8773
25.2849
24.6614
24.0134
23.3465
22.6649
21.9716
21.2687
20.5575
19.8388
19.113
18.3806
17.6422
16.8989
16.1524
15.4048
14.6587
13.9161
13.1782
12.4455
11.7178
10.9946
10.2754
9.55934
8.84585
8.13432
7.42429
6.71536
6.00723
5.29967
4.59251
3.88563
3.17894
2.47238
1.76591
1.05948
0.353086
27.2282
26.8165
26.3455
25.819
25.2458
24.6353
23.996
23.3348
22.6567
21.9655
21.2638
20.5532
19.8349
19.1094
18.3774
17.6398
16.8976
16.1526
15.4065
14.6617
13.9198
13.1821
12.4492
11.721
10.9973
10.2775
9.56091
8.84698
8.13512
7.42482
6.7157
6.00743
5.29978
4.59257
3.88565
3.17894
2.47237
1.76589
1.05947
0.353078
27.0627
26.7099
26.2778
25.7767
25.2197
24.6195
23.9865
23.3291
22.6532
21.9633
21.2622
20.5519
19.8336
19.1081
18.3762
17.6389
16.8972
16.1528
15.4075
14.6632
13.9216
13.184
12.4509
11.7224
10.9984
10.2783
9.56146
8.84732
8.1353
7.4249
6.71571
6.0074
5.29973
4.59251
3.8856
3.17889
2.47233
1.76585
1.05944
0.353074
26.9423
26.6439
26.2445
25.7617
25.2145
24.6192
23.9885
23.332
22.6564
21.9664
21.265
20.5543
19.8356
19.1098
18.3775
17.6398
16.8979
16.1532
15.4076
14.6631
13.9213
13.1835
12.4502
11.7217
10.9976
10.2775
9.56069
8.84663
8.1347
7.4244
6.7153
6.00708
5.29948
4.59231
3.88544
3.17877
2.47224
1.76579
1.0594
0.353068
26.8919
26.6427
26.2633
25.7861
25.2381
24.6397
24.0056
23.346
22.6678
21.9758
21.273
20.5612
19.8416
19.115
18.3819
17.6431
16.8999
16.154
15.4071
14.6614
13.9187
13.1803
12.4468
11.7183
10.9945
10.2747
9.55839
8.84474
8.1332
7.42322
6.7144
6.0064
5.29898
4.59195
3.88518
3.17859
2.4721
1.76569
1.05933
0.353041
27.046
26.7525
26.34
25.8389
25.2741
24.6641
24.022
23.3568
22.675
21.9805
21.2762
20.5635
19.8433
19.1161
18.3824
17.6429
16.8987
16.1514
15.4033
14.6566
13.9132
13.1747
12.4415
11.7135
10.9904
10.2714
9.55578
8.84277
8.13174
7.42218
6.71368
6.00591
5.29866
4.59176
3.88507
3.17853
2.47208
1.76569
1.05934
0.353043
27.1022
26.75
26.3144
25.8073
25.2438
24.6377
23.9999
23.3387
22.6601
21.9681
21.2656
20.5542
19.8351
19.1089
18.3764
17.6383
16.8957
16.1503
15.4041
14.659
13.917
13.1792
12.4462
11.7182
10.9947
10.2751
9.55889
8.84529
8.13373
7.42372
6.71484
6.00678
5.29929
4.59221
3.88539
3.17876
2.47224
1.76581
1.05942
0.353076
27.2261
26.8145
26.3435
25.817
25.2438
24.6331
23.9937
23.3322
22.6539
21.9625
21.2606
20.5499
19.8314
19.1059
18.374
17.6365
16.8946
16.1498
15.404
14.6594
13.9179
13.1804
12.4478
11.7199
10.9964
10.2767
9.56031
8.84652
8.13475
7.42455
6.7155
6.00729
5.29968
4.5925
3.88561
3.17892
2.47236
1.76589
1.05948