# vtk DataFile Version 2.0
I need something to put here
ASCII

DATASET STRUCTURED_GRID
DIMENSIONS 41 21 21
POINTS 18081 float
0.000000 0.000000 0.000000
0.100000 0.000000 0.000000
0.200000 0.000000 0.000000
0.300000 0.000000 0.000000
0.400000 0.000000 0.000000
0.500000 0.000000 0.000000
0.600000 0.000000 0.000000
0.700000 0.000000 0.000000
0.800000 0.000000 0.000000
0.900000 0.000000 0.000000
1.000000 0.000000 0.000000
1.100000 0.000000 0.000000
1.200000 0.000000 0.000000
1.300000 0.000000 0.000000
1.400000 0.000000 0.000000
1.500000 0.000000 0.000000
1.600000 0.000000 0.000000
1.700000 0.000000 0.000000
1.800000 0.000000 0.000000
1.900000 0.000000 0.000000
2.000000 0.000000 0.000000
2.100000 0.000000 0.000000
2.200000 0.000000 0.000000
2.300000 0.000000 0.000000
2.400000 0.000000 0.000000
2.500000 0.000000 0.000000
2.600000 0.000000 0.000000
2.700000 0.000000 0.000000
2.800000 0.000000 0.000000
2.900000 0.000000 0.000000
3.000000 0.000000 0.000000
3.100000 0.000000 0.000000
3.200000 0.000000 0.000000
3.300000 0.000000 0.000000
3.400000 0.000000 0.000000
3.500000 0.000000 0.000000
3.600000 0.000000 0.000000
3.700000 0.000000 0.000000
3.800000 0.000000 0.000000
3.900000 0.000000 0.000000
4.000000 0.000000 0.000000
0.000000 0.100000 0.000000
0.100000 0.100000 0.000000
0.200000 0.100000 0.000000
0.300000 0.100000 0.000000
0.400000 0.100000 0.000000
0.500000 0.100000 0.000000
0.600000 0.100000 0.000000
0.700000 0.100000 0.000000
0.800000 0.100000 0.000000
0.900000 0.100000 0.000000
1.000000 0.100000 0.000000
1.100000 0.100000 0.000000
1.200000 0.100000 0.000000
1.300000 0.100000 0.000000
1.400000 0.100000 0.000000
1.500000 0.100000 0.000000
1.600000 0.100000 0.000000
1.700000 0.100000 0.000000
1.800000 0.100000 0.000000
1.900000 0.100000 0.000000
2.000000 0.100000 0.000000
2.100000 0.100000 0.000000
2.200000 0.100000 0.000000
2.300000 0.100000 0.000000
2.400000 0.100000 0.000000
2.500000 0.100000 0.000000
2.600000 0.100000 0.000000
2.700000 0.100000 0.000000
2.800000 0.100000 0.000000
2.900000 0.100000 0.000000
3.000000 0.100000 0.000000
3.100000 0.100000 0.000000
3.200000 0.100000 0.000000
3.300000 0.100000 0.000000
3.400000 0.100000 0.000000
3.500000 0.100000 0.000000
3.600000 0.100000 0.000000
3.700000 0.100000 0.000000
3.800000 0.100000 0.000000
3.900000 0.100000 0.000000
4.000000 0.100000 0.000000
0.000000 0.200000 0.000000
0.100000 0.200000 0.000000
0.200000 0.200000 0.000000
0.300000 0.200000 0.000000
0.400000 0.200000 0.000000
0.500000 0.200000 0.000000
0.600000 0.200000 0.000000
0.700000 0.200000 0.000000
0.800000 0.200000 0.000000
0.900000 0.200000 0.000000
1.000000 0.200000 0.000000
1.100000 0.200000 0.000000
1.200000 0.200000 0.000000
1.300000 0.200000 0.000000
1.400000 0.200000 0.000000
1.500000 0.200000 0.000000
1.600000 0.200000 0.000000
1.700000 0.200000 0.000000
1.800000 0.200000 0.000000
1.900000 0.200000 0.000000
2.000000 0.200000 0.000000
2.100000 0.200000 0.000000
2.200000 0.200000 0.000000
2.300000 0.200000 0.000000
2.400000 0.200000 0.000000
2.500000 0.200000 0.000000
2.600000 0.200000 0.000000
2.700000 0.200000 0.000000
2.800000 0.200000 0.000000
2.900000 0.200000 0.000000
3.000000 0.200000 0.000000
3.100000 0.200000 0.000000
3.200000 0.200000 0.000000
3.300000 0.200000 0.000000
3.400000 0.200000 0.000000
3.500000 0.200000 0.000000
3.600000 0.200000 0.000000
3.700000 0.200000 0.000000
3.800000 0.200000 0.000000
3.900000 0.200000 0.000000
4.000000 0.200000 0.000000
0.000000 0.300000 0.000000
0.100000 0.300000 0.000000
0.200000 0.300000 0.000000
0.300000 0.300000 0.000000
0.400000 0.300000 0.000000
0.500000 0.300000 0.000000
0.600000 0.300000 0.000000
0.700000 0.300000 0.000000
0.800000 0.300000 0.000000
0.900000 0.300000 0.000000
1.000000 0.300000 0.000000
1.100000 0.300000 0.000000
1.200000 0.300000 0.000000
1.300000 0.300000 0.000000
1.400000 0.300000 0.000000
1.500000 0.300000 0.000000
1.600000 0.300000 0.000000
1.700000 0.300000 0.000000
1.800000 0.300000 0.000000
1.900000 0.300000 0.000000
2.000000 0.300000 0.000000
2.100000 0.300000 0.000000
2.200000 0.300000 0.000000
2.300000 0.300000 0.000000
2.400000 0.300000 0.000000
2.500000 0.300000 0.000000
2.600000 0.300000 0.000000
2.700000 0.300000 0.000000
2.800000 0.300000 0.000000
2.900000 0.300000 0.000000
3.000000 0.300000 0.000000
3.100000 0.300000 0.000000
3.200000 0.300000 0.000000
3.300000 0.300000 0.000000
3.400000 0.300000 0.000000
3.500000 0.300000 0.000000
3.600000 0.300000 0.000000
3.700000 0.300000 0.000000
3.800000 0.300000 0.000000
3.900000 0.300000 0.000000
4.000000 0.300000 0.000000
0.000000 0.400000 0.000000
0.100000 0.400000 0.000000
0.200000 0.400000 0.000000
0.300000 0.400000 0.000000
0.400000 0.400000 0.000000
0.500000 0.400000 0.000000
0.600000 0.400000 0.000000
0.700000 0.400000 0.000000
0.800000 0.400000 0.000000
0.900000 0.400000 0.000000
1.000000 0.400000 0.000000
1.100000 0.400000 0.000000
1.200000 0.400000 0.000000
1.300000 0.400000 0.000000
1.400000 0.400000 0.000000
1.500000 0.400000 0.000000
1.600000 0.400000 0.000000
1.700000 0.400000 0.000000
1.800000 0.400000 0.000000
1.900000 0.400000 0.000000
2.000000 0.400000 0.000000
2.100000 0.400000 0.000000
2.200000 0.400000 0.000000
2.300000 0.400000 0.000000
2.400000 0.400000 0.000000
2.500000 0.400000 0.000000
2.600000 0.400000 0.000000
2.700000 0.400000 0.000000
2.800000 0.400000 0.000000
2.900000 0.400000 0.000000
3.000000 0.400000 0.000000
3.100000 0.400000 0.000000
3.200000 0.400000 0.000000
3.300000 0.400000 0.000000
3.400000 0.400000 0.000000
3.500000 0.400000 0.000000
3.600000 0.400000 0.000000
3.700000 0.400000 0.000000
3.800000 0.400000 0.000000
3.900000 0.400000 0.000000
4.000000 0.400000 0.000000
0.000000 0.500000 0.000000
0.100000 0.500000 0.000000
0.200000 0.500000 0.000000
0.300000 0.500000 0.000000
0.400000 0.500000 0.000000
0.500000 0.500000 0.000000
0.600000 0.500000 0.000000
0.700000 0.500000 0.000000
0.800000 0.500000 0.000000
0.900000 0.500000 0.000000
1.000000 0.500000 0.000000
1.100000 0.500000 0.000000
1.200000 0.500000 0.000000
1.300000 0.500000 0.000000
1.400000 0.500000 0.000000
1.500000 0.500000 0.000000
1.600000 0.500000 0.000000
1.700000 0.500000 0.000000
1.800000 0.500000 0.000000
1.900000 0.500000 0.000000
2.000000 0.500000 0.000000
2.100000 0.500000 0.000000
2.200000 0.500000 0.000000
2.300000 0.500000 0.000000
2.400000 0.500000 0.000000
2.500000 0.500000 0.000000
2.600000 0.500000 0.000000
2.700000 0.500000 0.000000
2.800000 0.500000 0.000000
2.900000 0.500000 0.000000
3.000000 0.500000 0.000000
3.100000 0.500000 0.000000
3.200000 0.500000 0.000000
3.300000 0.500000 0.000000
3.400000 0.500000 0.000000
3.500000 0.500000 0.000000
3.600000 0.500000 0.000000
3.700000 0.500000 0.000000
3.800000 0.500000 0.000000
3.900000 0.500000 0.000000
4.000000 0.500000 0.000000
0.000000 0.600000 0.000000
0.100000 0.600000 0.000000
0.200000 0.600000 0.000000
0.300000 0.600000 0.000000
0.400000 0.600000 0.000000
0.500000 0.600000 0.000000
0.600000 0.600000 0.000000
0.700000 0.600000 0.000000
0.800000 0.600000 0.000000
0.900000 0.600000 0.000000
1.000000 0.600000 0.000000
1.100000 0.600000 0.000000
1.200000 0.600000 0.000000
1.300000 0.600000 0.000000
1.400000 0.600000 0.000000
1.500000 0.600000 0.000000
1.600000 0.600000 0.000000
1.700000 0.600000 0.000000
1.800000 0.600000 0.000000
1.900000 0.600000 0.000000
2.000000 0.600000 0.000000
2.100000 0.600000 0.000000
2.200000 0.600000 0.000000
2.300000 0.600000 0.000000
2.400000 0.600000 0.000000
2.500000 0.600000 0.000000
2.600000 0.600000 0.000000
2.700000 0.600000 0.000000
2.800000 0.600000 0.000000
2.900000 0.600000 0.000000
3.000000 0.600000 0.000000
3.100000 0.600000 0.000000
3.200000 0.600000 0.000000
3.300000 0.600000 0.000000
3.400000 0.600000 0.000000
3.500000 0.600000 0.000000
3.600000 0.600000 0.000000
3.700000 0.600000 0.000000
3.800000 0.600000 0.000000
3.900000 0.600000 0.000000
4.000000 0.600000 0.000000
0.000000 0.700000 0.000000
0.100000 0.700000 0.000000
0.200000 0.700000 0.000000
0.300000 0.700000 0.000000
0.400000 0.700000 0.000000
0.500000 0.700000 0.000000
0.600000 0.700000 0.000000
0.700000 0.700000 0.000000
0.800000 0.700000 0.000000
0.900000 0.700000 0.000000
1.000000 0.700000 0.000000
1.100000 0.700000 0.000000
1.200000 0.700000 0.000000
1.300000 0.700000 0.000000
1.400000 0.700000 0.000000
1.500000 0.700000 0.000000
1.600000 0.700000 0.000000
1.700000 0.700000 0.000000
1.800000 0.700000 0.000000
1.900000 0.700000 0.000000
2.000000 0.700000 0.000000
2.100000 0.700000 0.000000
2.200000 0.700000 0.000000
2.300000 0.700000 0.000000
2.400000 0.700000 0.000000
2.500000 0.700000 0.000000
2.600000 0.700000 0.000000
2.700000 0.700000 0.000000
2.800000 0.700000 0.000000
2.900000 0.700000 0.000000
3.000000 0.700000 0.000000
3.100000 0.700000 0.000000
3.200000 0.700000 0.000000
3.300000 0.700000 0.000000
3.400000 0.700000 0.000000
3.500000 0.700000 0.000000
3.600000 0.700000 0.000000
3.700000 0.700000 0.000000
3.800000 0.700000 0.000000
3.900000 0.700000 0.000000
4.000000 0.700000 0.000000
0.000000 0.800000 0.000000
0.100000 0.800000 0.000000
0.200000 0.800000 0.000000
0.300000 0.800000 0.000000
0.400000 0.800000 0.000000
0.500000 0.800000 0.000000
0.600000 0.800000 0.000000
0.700000 0.800000 0.000000
0.800000 0.800000 0.000000
0.900000 0.800000 0.000000
1.000000 0.800000 0.000000
1.100000 0.800000 0.000000
1.200000 0.800000 0.000000
1.300000 0.800000 0.000000
1.400000 0.800000 0.000000
1.500000 0.800000 0.000000
1.600000 0.800000 0.000000
1.700000 0.800000 0.000000
1.800000 0.800000 0.000000
1.900000 0.800000 0.000000
2.000000 0.800000 0.000000
2.100000 0.800000 0.000000
2.200000 0.800000 0.000000
2.300000 0.800000 0.000000
2.400000 0.800000 0.000000
2.500000 0.800000 0.000000
2.600000 0.800000 0.000000
2.700000 0.800000 0.000000
2.800000 0.800000 0.000000
2.900000 0.800000 0.000000
3.000000 0.800000 0.000000
3.100000 0.800000 0.000000
3.200000 0.800000 0.000000
3.300000 0.800000 0.000000
3.400000 0.800000 0.000000
3.500000 0.800000 0.000000
3.600000 0.800000 0.000000
[...]
CELL_DATA 16000
SCALARS pressure float 1
LOOKUP_TABLE default
34.6459
34.4696
34.1315
33.6639
33.0916
32.4305
31.6882
30.8668
29.9645
28.9788
27.9088
26.7579
25.535
24.2543
22.9344
21.5959
20.2601
18.9476
17.6767
16.4623
15.314
14.236
13.2271
12.2819
11.3922
10.549
9.74282
8.96547
8.20977
7.46991
6.74138
6.02074
5.30548
4.59381
3.88446
3.17658
2.46963
1.76328
1.05741
0.352084
34.7012
34.4998
34.1479
33.6727
33.0964
32.4332
31.6902
30.8687
29.9668
28.9814
27.9115
26.7604
25.5369
24.2555
22.9347
21.5953
20.2587
18.9455
17.6742
16.4595
15.3113
14.2337
13.2254
12.2808
11.3918
10.5489
9.74312
8.96595
8.21033
7.47048
6.74191
6.0212
5.30588
4.59413
3.88471
3.17678
2.46978
1.76338
1.05744
0.352015
34.822
34.5844
34.2088
33.7186
33.1337
32.4665
31.7226
30.9022
30.0019
29.0174
27.9464
26.7914
25.5614
24.2716
22.9415
21.5927
20.2472
18.926
17.6483
16.4296
15.28
14.2036
13.1982
12.2577
11.373
10.5343
9.73218
8.95802
8.20475
7.46667
6.73939
6.01959
5.30488
4.59355
3.8844
3.17662
2.46969
1.76331
1.05734
0.35187
34.9869
34.7074
34.3024
33.7932
33.1973
32.5256
31.7819
30.9644
30.0676
29.0847
28.0114
26.8489
25.6065
24.3009
22.9535
21.5872
20.2248
18.8887
17.5992
16.373
15.221
14.1467
13.147
12.214
11.3374
10.5065
9.71115
8.9426
8.19376
7.45904
6.73422
6.01618
5.3027
4.59219
3.88358
3.17615
2.46942
1.76313
1.05719
0.351739
35.1748
34.8535
34.4175
33.8878
33.2808
32.6053
31.8635
31.0513
30.16
29.1798
28.1033
26.9299
25.6696
24.3414
22.9692
21.578
20.192
18.8347
17.5283
16.2917
15.1365
14.0657
13.0743
12.1522
11.2873
10.4674
9.68164
8.92097
8.17831
7.44828
6.7269
6.01132
5.29955
4.59021
3.88238
3.17544
2.46901
1.76288
1.05703
0.351649
35.366
35.0067
34.5416
33.9926
33.3754
32.6977
31.9598
31.155
30.2714
29.2951
28.215
27.0283
25.7458
24.3895
22.9871
21.5657
20.1509
18.7678
17.4409
16.1917
15.0331
13.9671
12.9863
12.0779
11.2273
10.4208
9.64652
8.89529
8.16
7.43553
6.71822
6.00555
5.2958
4.58784
3.88092
3.17457
2.46851
1.76261
1.05688
0.351603
35.5429
35.1517
34.6614
34.0959
33.4706
32.7925
32.06
31.2641
30.3896
29.4182
28.3346
27.1338
25.827
24.4404
23.0055
21.5517
20.1062
18.6954
17.3464
16.0838
14.922
13.8617
12.8928
11.9993
11.1642
10.3719
9.60989
8.86857
8.141
7.42231
6.70923
5.99957
5.29192
4.58539
3.87942
3.17368
2.46801
1.76234
1.05677
0.351593
35.6903
35.2744
34.7646
34.1862
33.5552
32.8778
32.1513
31.3645
30.4991
29.533
28.4466
27.2325
25.9028
24.4876
23.0222
21.5383
20.0641
18.6273
17.2575
15.9826
14.8181
13.7637
12.8062
11.9269
11.1063
10.3272
9.57651
8.84429
8.12376
7.41035
6.70111
5.99418
5.28842
4.58317
3.87806
3.17288
2.46756
1.76212
1.05668
0.351607
35.7959
35.3633
34.8401
34.2532
33.6186
32.9424
32.2209
31.4416
30.5837
29.622
28.5337
27.3094
25.9619
24.5244
23.0352
21.5278
20.0312
18.5741
17.1882
15.9038
14.7375
13.6878
12.7395
11.8713
11.0619
10.2931
9.55109
8.82584
8.11068
7.40128
6.69496
5.99009
5.28577
4.58149
3.87703
3.17227
2.46722
1.76195
1.05663
0.351627
35.851
35.41
34.88
34.2888
33.6526
32.9773
32.2588
31.4836
30.63
29.6708
28.5815
27.3517
25.9945
24.5448
23.0425
21.5221
20.0132
18.545
17.1503
15.8608
14.6935
13.6465
12.7032
11.8411
11.0379
10.2747
9.53735
8.81588
8.10363
7.3964
6.69164
5.98789
5.28434
4.58059
3.87647
3.17195
2.46704
1.76187
1.0566
0.351641
35.8512
35.4102
34.8802
34.289
33.6529
32.9775
32.259
31.4839
30.6303
29.6711
28.5819
27.3521
25.9948
24.5451
23.0428
21.5224
20.0135
18.5453
17.1505
15.861
14.6937
13.6466
12.7032
11.8411
11.0379
10.2747
9.53736
8.81588
8.10363
7.3964
6.69164
5.98789
5.28434
4.58059
3.87647
3.17194
2.46704
1.76186
1.0566
0.351642
35.7965
35.3639
34.8407
34.2537
33.6193
32.9431
32.2217
31.4424
30.5846
29.6229
28.5347
27.3104
25.9629
24.5253
23.0361
21.5286
20.0319
18.5747
17.1888
15.9043
14.7379
13.6881
12.7397
11.8714
11.062
10.2932
9.55112
8.82585
8.11069
7.40128
6.69495
5.99008
5.28576
4.58149
3.87702
3.17227
2.46722
1.76195
1.05663
0.35163
35.6912
35.2754
34.7655
34.1872
33.5563
32.8789
32.1524
31.3657
30.5005
29.5345
28.4482
27.2341
25.9043
24.4891
23.0236
21.5395
20.0652
18.6282
17.2583
15.9832
14.8187
13.764
12.8065
11.9271
11.1064
10.3273
9.57656
8.84431
8.12377
7.41035
6.7011
5.99416
5.28841
4.58316
3.87804
3.17287
2.46755
1.76211
1.05668
0.351611
35.5442
35.1529
34.6627
34.0972
33.472
32.7939
32.0616
31.2658
30.3915
29.4203
28.3367
27.1359
25.829
24.4423
23.0072
21.5533
20.1075
18.6965
17.3473
16.0845
14.9225
13.8621
12.8931
11.9995
11.1643
10.372
9.60993
8.86859
8.141
7.4223
6.70922
5.99956
5.29191
4.58537
3.8794
3.17367
2.468
1.76234
1.05677
0.351598
35.3675
35.0082
34.5431
33.9941
33.377
32.6995
31.9617
31.157
30.2737
29.2976
28.2175
27.0309
25.7482
24.3918
22.9892
21.5674
20.1524
18.769
17.4419
16.1924
15.0336
13.9675
12.9866
12.0781
11.2274
10.4208
9.64655
8.89529
8.15999
7.43551
6.7182
6.00553
5.29578
4.58782
3.88091
3.17456
2.4685
1.7626
1.05688
0.351608
35.1765
34.8552
34.4192
33.8896
33.2826
32.6073
31.8657
31.0536
30.1625
29.1825
28.1061
26.9328
25.6723
24.3439
22.9715
21.5799
20.1935
18.8359
17.5292
16.2924
15.137
14.066
13.0745
12.1524
11.2874
10.4675
9.68164
8.92096
8.17829
7.44825
6.72687
6.01129
5.29952
4.59019
3.88235
3.17542
2.46899
1.76288
1.05702
0.351654
34.9887
34.7092
34.3042
33.795
33.1993
32.5277
31.7842
30.9669
30.0703
29.0876
28.0143
26.8518
25.6093
24.3036
22.9559
21.5891
20.2264
18.8899
17.6001
16.3736
15.2214
14.147
13.1471
12.2141
11.3375
10.5065
9.71113
8.94257
8.19372
7.459
6.73418
6.01615
5.30266
4.59216
3.88356
3.17613
2.4694
1.76312
1.05718
0.351744
34.8239
34.5862
34.2107
33.7206
33.1357
32.4686
31.7249
30.9048
30.0047
29.0203
27.9494
26.7944
25.5643
24.2743
22.9439
21.5947
20.2487
18.9272
17.6492
16.4302
15.2804
14.2038
13.1984
12.2578
11.373
10.5343
9.73215
8.95797
8.2047
7.46663
6.73934
6.01955
5.30485
4.59352
3.88437
3.1766
2.46968
1.7633
1.05733
0.351873
34.7031
34.5016
34.1498
33.6747
33.0984
32.4354
31.6925
30.8712
29.9695
28.9842
27.9145
26.7634
25.5398
24.2581
22.937
21.5972
20.2603
18.9467
17.675
16.4601
15.3117
14.2339
13.2255
12.2809
11.3918
10.5489
9.74307
8.9659
8.21027
7.47043
6.74186
6.02116
5.30584
4.59409
3.88468
3.17676
2.46976
1.76336
1.05743
0.352016
34.6477
34.4715
34.1334
33.6658
33.0936
32.4326
31.6905
30.8693
29.9672
28.9816
27.9117
26.7608
25.5378
24.257
22.9367
21.5978
20.2617
18.9488
17.6776
16.4628
15.3143
14.2362
13.2272
12.2819
11.3922
10.5489
9.74277
8.96542
8.20971
7.46986
6.74133
6.02069
5.30544
4.59377
3.88443
3.17655
2.46961
1.76326
1.0574
0.352082
34.7012
34.4998
34.1479
33.6727
33.0964
32.4332
31.6902
30.8687
29.9667
28.9814
27.9115
26.7604
25.5369
24.2555
22.9347
21.5953
20.2587
18.9455
17.6742
16.4595
15.3113
14.2337
13.2254
12.2808
11.3918
10.5489
9.74312
8.96595
8.21033
7.47048
6.74191
6.02121
5.30588
4.59413
3.88471
3.17678
2.46978
1.76338
1.05744
0.352015
34.7439
34.5044
34.1335
33.6495
33.0689
32.4032
31.6583
30.8354
29.9326
28.9476
27.8796
26.7321
25.514
24.2394
22.9263
21.5949
20.2662
18.9602
17.6947
16.4842
15.3383
14.2612
13.2518
12.3049
11.4129
10.5668
9.75772
8.9776
8.21942
7.47742
6.74711
6.02505
5.30867
4.59613
3.88613
3.17778
2.47049
1.76389
1.05779
0.352117
34.8601
34.575
34.1756
33.6742
33.0836
32.4126
31.6653
30.8418
29.9395
28.9549
27.887
26.7386
25.5187
24.2418
22.9263
21.5926
20.2618
18.954
17.6873
16.4763
15.3308
14.2548
13.2468
12.3016
11.4111
10.5662
9.758
8.97843
8.22052
7.47862
6.74827
6.0261
5.30957
4.59689
3.88675
3.17827
2.47087
1.76416
1.05794
0.352085
35.0277
34.6912
34.2577
33.7346
33.1311
32.4536
31.7043
30.8816
29.9809
28.9972
27.9276
26.7742
25.5461
24.2589
22.9322
21.5873
20.2459
18.9288
17.6549
16.4396
15.293
14.2189
13.2151
12.2751
11.39
10.5501
9.74626
8.97017
8.21494
7.475
6.74603
6.0248
5.30889
4.59659
3.88667
3.17832
2.47095
1.76424
1.05797
0.35205
35.2222
34.834
34.3653
33.8191
33.202
32.5183
31.7682
30.9479
30.0503
29.068
27.9954
26.8336
25.5917
24.2873
22.942
21.5787
20.2198
18.8872
17.601
16.3783
15.2299
14.1588
13.1614
12.2297
11.3534
10.5218
9.72505
8.95481
8.20413
7.46762
6.74115
6.02167
5.30696
4.59546
3.88606
3.17801
2.47083
1.7642
1.05796
0.352047
35.4215
34.9859
34.4838
33.9157
33.286
32.5974
31.848
31.0317
30.1389
29.1586
28.0825
26.9097
25.6499
24.3232
22.9542
21.5672
20.186
18.8334
17.5315
16.2994
15.1487
14.0816
13.0927
12.1717
11.3065
10.4853
9.69766
8.93483
8.18995
7.45781
6.73454
6.01734
5.30421
4.59377
3.88507
3.17747
2.47055
1.76408
1.05793
0.352081
35.6063
35.1302
34.5994
34.0122
33.3721
32.6801
31.9328
31.1219
30.2349
29.2575
28.1778
26.9929
25.7132
24.3621
22.9671
21.5544
20.1489
18.7744
17.4551
16.2127
15.0598
13.9975
13.018
12.1088
11.2558
10.446
9.6681
8.91323
8.17458
7.44714
6.72731
6.01257
5.30115
4.59187
3.88393
3.17682
2.47022
1.76393
1.0579
0.352142
35.7602
35.2526
34.6991
34.0971
33.4491
32.7553
32.0109
31.2057
30.3247
29.3504
28.2678
27.0717
25.773
24.3986
22.979
21.5422
20.1138
18.7186
17.3828
16.1309
14.9761
13.9186
12.9483
12.0503
11.2088
10.4096
9.64075
8.89325
8.16035
7.43725
6.7206
6.00812
5.29827
4.59007
3.88285
3.1762
2.46989
1.76379
1.05788
0.352213
35.8703
35.3413
34.7723
34.1601
33.507
32.8124
32.0706
31.2703
30.3944
29.4228
28.3381
27.1332
25.8198
24.4271
22.9884
21.5327
20.0864
18.675
17.3264
16.067
14.9111
13.8574
12.8944
12.0052
11.1727
10.3816
9.61977
8.87794
8.14945
7.42967
6.71545
6.0047
5.29606
4.58868
3.882
3.17571
2.46963
1.76367
1.05786
0.352273
35.9278
35.3879
34.811
34.1937
33.5381
32.8432
32.1031
31.3055
30.4325
29.4625
28.3767
27.1672
25.8456
24.443
22.9937
21.5276
20.0714
18.6512
17.2955
16.0322
14.8755
13.8241
12.865
11.9807
11.153
10.3664
9.6084
8.86964
8.14355
7.42556
6.71265
6.00284
5.29486
4.58792
3.88154
3.17545
2.46949
1.76361
1.05785
0.352308
35.928
35.3881
34.8112
34.1939
33.5383
32.8434
32.1034
31.3058
30.4327
29.4628
28.377
27.1675
25.8459
24.4433
22.994
21.5279
20.0717
18.6514
17.2957
16.0323
14.8757
13.8242
12.8651
11.9807
11.1531
10.3664
9.60841
8.86965
8.14355
7.42556
6.71265
6.00284
5.29486
4.58792
3.88154
3.17545
2.46949
1.76361
1.05785
0.352308
35.8709
35.3419
34.7728
34.1607
33.5076
32.813
32.0713
31.271
30.3951
29.4237
28.339
27.1341
25.8206
24.428
22.9892
21.5334
20.087
18.6756
17.3269
16.0674
14.9114
13.8577
12.8946
12.0053
11.1728
10.3817
9.6198
8.87795
8.14946
7.42967
6.71544
6.00469
5.29605
4.58867
3.882
3.17571
2.46962
1.76367
1.05786
0.352273
35.7611
35.2536
34.7
34.0981
33.4501
32.7563
32.012
31.2069
30.326
29.3518
28.2693
27.0731
25.7744
24.3999
22.9802
21.5433
20.1148
18.7195
17.3835
16.1315
14.9766
13.919
12.9486
12.0505
11.209
10.4097
9.64079
8.89327
8.16036
7.43725
6.72059
6.00811
5.29826
4.59006
3.88283
3.17619
2.46988
1.76378
1.05787
0.352212
35.6075
35.1315
34.6006
34.0135
33.3734
32.6815
31.9343
31.1236
30.2367
29.2593
28.1798
26.9949
25.7151
24.3639
22.9687
21.5558
20.1501
18.7754
17.456
16.2134
15.0603
13.9979
13.0183
12.109
11.256
10.4461
9.66814
8.91324
8.17458
7.44713
6.7273
6.01255
5.30113
4.59185
3.88392
3.17681
2.4702
1.76392
1.05789
0.352142
35.423
34.9873
34.4853
33.9172
33.2876
32.599
31.8498
31.0337
30.141
29.1608
28.0848
26.912
25.6521
24.3253
22.9561
21.5689
20.1874
18.8346
17.5324
16.3001
15.1492
14.082
13.0929
12.1718
11.3066
10.4854
9.69769
8.93483
8.18994
7.4578
6.73452
6.01732
5.30419
4.59375
3.88505
3.17745
2.47054
1.76407
1.05792
0.352081
35.2239
34.8357
34.3669
33.8208
33.2038
32.5202
31.7703
30.9501
30.0527
29.0705
27.998
26.8362
25.5943
24.2896
22.9441
21.5804
20.2213
18.8883
17.6019
16.379
15.2304
14.1591
13.1617
12.2299
11.3535
10.5218
9.72507
8.9548
8.20412
7.46759
6.74112
6.02164
5.30693
4.59543
3.88603
3.17799
2.47081
1.76418
1.05795
0.352047
35.0295
34.693
34.2595
33.7365
33.133
32.4556
31.7065
30.884
29.9835
28.9999
27.9304
26.777
25.5488
24.2614
22.9343
21.5892
20.2475
18.93
17.6558
16.4402
15.2935
14.2192
13.2153
12.2752
11.39
10.5501
9.74625
8.97015
8.21491
7.47496
6.746
6.02476
5.30886
4.59656
3.88665
3.17829
2.47094
1.76422
1.05796
0.35205
34.862
34.5769
34.1774
33.6761
33.0856
32.4147
31.6676
30.8443
29.9421
28.9577
27.8898
26.7415
25.5215
24.2443
22.9285
21.5945
20.2633
18.9552
17.6882
16.4769
15.3312
14.255
13.247
12.3017
11.4111
10.5662
9.75797
8.97839
8.22048
7.47857
6.74823
6.02606
5.30954
4.59685
3.88672
3.17825
2.47085
1.76414
1.05792
0.352085
34.7458
34.5062
34.1354
33.6514
33.0708
32.4053
31.6606
30.8378
29.9352
28.9503
27.8824
26.735
25.5168
24.2419
22.9285
21.5969
20.2678
18.9614
17.6956
16.4848
15.3387
14.2614
13.2519
12.3049
11.4129
10.5667
9.75768
8.97756
8.21937
7.47737
6.74707
6.025
5.30863
4.59609
3.8861
3.17776
2.47047
1.76387
1.05778
0.352116
34.7031
34.5016
34.1497
33.6746
33.0983
32.4353
31.6924
30.8711
29.9693
28.9841
27.9144
26.7633
25.5397
24.258
22.9369
21.5972
20.2602
18.9467
17.675
16.46
15.3117
14.2339
13.2255
12.2809
11.3918
10.5489
9.74307
8.9659
8.21027
7.47043
6.74185
6.02116
5.30583
4.59409
3.88468
3.17676
2.46976
1.76336
1.05743
0.352012
34.822
34.5844
34.2088
33.7186
33.1337
32.4665
31.7226
30.9022
30.0019
29.0174
27.9464
26.7914
25.5614
24.2716
22.9415
21.5927
20.2471
18.926
17.6483
16.4296
15.28
14.2036
13.1983
12.2577
11.373
10.5344
9.73219
8.95803
8.20475
7.46668
6.73939
6.0196
5.30489
4.59355
3.8844
3.17662
2.4697
1.76331
1.05734
0.351871
34.8601
34.575
34.1756
33.6742
33.0836
32.4126
31.6653
30.8418
29.9394
28.9549
27.8869
26.7386
25.5187
24.2418
22.9262
21.5926
20.2618
18.954
17.6873
16.4763
15.3308
14.2548
13.2469
12.3016
11.4111
10.5662
9.758
8.97843
8.22052
7.47862
6.74828
6.0261
5.30958
4.59689
3.88675
3.17827
2.47087
1.76416
1.05794
0.352085
34.9714
34.6362
34.2042
33.683
33.0806
32.4028
31.6518
30.8266
29.924
28.9401
27.8732
26.7263
25.508
24.2332
22.9205
21.5901
20.2626
18.9578
17.6938
16.4851
15.3415
14.2668
13.2597
12.3145
11.4233
10.5773
9.76779
8.98676
8.22741
7.48418
6.75267
6.02951
5.31218
4.59886
3.88822
3.17936
2.47167
1.76473
1.05828
0.352122
35.139
34.7475
34.2776
33.7321
33.115
32.4293
31.6752
30.85
29.9487
28.9659
27.8984
26.7478
25.5234
24.2413
22.9211
21.5838
20.2499
18.9394
17.6709
16.46
15.3169
14.2449
13.2416
12.3007
11.4135
10.5708
9.76391
8.98476
8.22668
7.48424
6.75318
6.03023
5.31296
4.5996
3.88888
3.17992
2.47212
1.76507
1.05848
0.352153
35.338
34.8892
34.3801
33.8089
33.1765
32.4833
31.7274
30.9041
30.006
29.0251
27.9553
26.7969
25.5595
24.2617
22.9257
21.5732
20.225
18.9015
17.6226
16.4062
15.2627
14.1949
13.1985
12.2655
11.3861
10.5505
9.74929
8.97466
8.21997
7.47999
6.75062
6.02881
5.31227
4.59935
3.88889
3.18007
2.47231
1.76525
1.05862
0.352223
35.5446
35.0422
34.496
33.9004
33.2538
32.5544
31.7986
30.9792
30.0863
29.1084
28.0358
26.8662
25.61
24.2904
22.9325
21.5591
20.191
18.8491
17.5553
16.3307
15.1869
14.1248
13.1378
12.2156
11.3469
10.5207
9.7275
8.95917
8.20929
7.47284
6.746
6.02593
5.31057
4.59842
3.88844
3.1799
2.4723
1.76532
1.05872
0.352335
35.7375
35.1891
34.6105
33.9937
33.3351
32.6315
31.8773
31.0636
30.1774
29.2036
28.1283
26.946
25.6677
24.3228
22.9401
21.5433
20.1528
18.7896
17.478
16.2441
15.1003
14.0452
13.0692
12.1594
11.3026
10.4871
9.70267
8.94136
8.19686
7.4644
6.74043
6.02237
5.30838
4.59714
3.88774
3.17956
2.47218
1.76532
1.0588
0.352474
35.899
35.3142
34.71
34.0765
33.4089
32.7027
31.9512
31.1436
30.2647
29.2957
28.2185
27.0239
25.7236
24.354
22.9475
21.5282
20.1161
18.7321
17.4029
16.1601
15.0167
13.9689
13.0037
12.1059
11.2606
10.4551
9.6791
8.92442
8.18499
7.45628
6.73502
6.01887
5.30619
4.59583
3.887
3.17918
2.47202
1.7653
1.05886
0.352615
36.0149
35.4051
34.7832
34.1383
33.4647
32.7573
32.0084
31.2061
30.3333
29.3685
28.2901
27.086
25.7684
24.3792
22.9537
21.5164
20.0871
18.6865
17.3435
16.0937
14.9509
13.909
12.9526
12.0642
11.228
10.4303
9.66079
8.91125
8.17574
7.44995
6.73079
6.01612
5.30445
4.59477
3.88639
3.17886
2.47188
1.76527
1.05891
0.352728
36.0754
35.4529
34.822
34.1713
33.4948
32.7869
32.0397
31.2404
30.3711
29.4087
28.3297
27.1204
25.7934
24.3934
22.9573
21.5101
20.0711
18.6614
17.3108
16.0573
14.9149
13.8763
12.9246
12.0415
11.2101
10.4168
9.65082
8.90408
8.1707
7.44649
6.72847
6.01461
5.30349
4.59419
3.88606
3.17868
2.4718
1.76525
1.05893
0.35279
36.0756
35.4531
34.8222
34.1715
33.495
32.7871
32.0399
31.2407
30.3713
29.4089
28.3299
27.1207
25.7937
24.3937
22.9576
21.5103
20.0713
18.6616
17.311
16.0575
14.915
13.8764
12.9247
12.0416
11.2102
10.4168
9.65083
8.90408
8.17071
7.44649
6.72847
6.0146
5.30349
4.59419
3.88605
3.17868
2.4718
1.76525
1.05893
0.35279
36.0155
35.4056
34.7838
34.1389
33.4653
32.7579
32.0091
31.2069
30.3341
29.3693
28.291
27.0868
25.7692
24.38
22.9544
21.5171
20.0877
18.6871
17.344
16.0942
14.9513
13.9093
12.9528
12.0644
11.228
10.4304
9.66082
8.91127
8.17575
7.44995
6.73078
6.01611
5.30444
4.59476
3.88639
3.17886
2.47188
1.76527
1.0589
0.352726
35.8999
35.3151
34.7109
34.0774
33.4098
32.7037
31.9523
31.1448
30.266
29.2971
28.2199
27.0253
25.725
24.3553
22.9487
21.5293
20.1171
18.733
17.4037
16.1607
15.0172
13.9692
13.004
12.1061
11.2607
10.4552
9.67914
8.92444
8.18499
7.45628
6.73501
6.01886
5.30618
4.59581
3.88699
3.17917
2.47202
1.76529
1.05886
0.352612
35.7388
35.1903
34.6117
33.9949
33.3364
32.6328
31.8788
31.0651
30.1791
29.2054
28.1303
26.9479
25.6695
24.3245
22.9417
21.5446
20.154
18.7906
17.4789
16.2448
15.1008
14.0455
13.0694
12.1595
11.3027
10.4871
9.70271
8.94138
8.19686
7.46439
6.74041
6.02235
5.30836
4.59712
3.88773
3.17955
2.47218
1.76532
1.05879
0.352472
35.5461
35.0437
34.4975
33.9019
33.2553
32.5561
31.8004
30.9812
30.0884
29.1106
28.0381
26.8685
25.6123
24.2925
22.9343
21.5606
20.1923
18.8502
17.5561
16.3313
15.1874
14.1251
13.138
12.2158
11.347
10.5208
9.72753
8.95918
8.20928
7.47282
6.74598
6.02591
5.31055
4.5984
3.88842
3.17989
2.47229
1.76531
1.05871
0.352332
35.3397
34.8909
34.3818
33.8106
33.1782
32.4851
31.7294
30.9063
30.0084
29.0276
27.9579
26.7995
25.562
24.264
22.9277
21.5749
20.2264
18.9026
17.6235
16.4068
15.2632
14.1952
13.1987
12.2656
11.3862
10.5505
9.7493
8.97465
8.21996
7.47996
6.75059
6.02878
5.31224
4.59933
3.88887
3.18005
2.4723
1.76524
1.05861
0.352219
35.1408
34.7493
34.2794
33.7339
33.1169
32.4313
31.6774
30.8524
29.9513
28.9686
27.9011
26.7506
25.5261
24.2437
22.9233
21.5856
20.2513
18.9405
17.6717
16.4606
15.3173
14.2452
13.2418
12.3007
11.4135
10.5709
9.76391
8.98473
8.22665
7.48421
6.75314
6.03019
5.31292
4.59957
3.88886
3.1799
2.47211
1.76505
1.05847
0.352149
34.9733
34.6381
34.206
33.6849
33.0826
32.4048
31.654
30.8291
29.9266
28.9428
27.8761
26.7291
25.5108
24.2357
22.9227
21.592
20.2641
18.959
17.6946
16.4857
15.3419
14.2671
13.2598
12.3145
11.4233
10.5773
9.76777
8.98672
8.22737
7.48414
6.75263
6.02947
5.31215
4.59882
3.88819
3.17934
2.47165
1.76471
1.05826
0.352118
34.862
34.5769
34.1774
33.6761
33.0855
32.4146
31.6675
30.8442
29.9421
28.9577
27.8898
26.7415
25.5215
24.2444
22.9285
21.5945
20.2633
18.9551
17.6881
16.4769
15.3311
14.255
13.247
12.3017
11.4111
10.5661
9.75796
8.97838
8.22047
7.47857
6.74823
6.02605
5.30953
4.59685
3.88672
3.17825
2.47085
1.76414
1.05793
0.352082
34.8239
34.5862
34.2106
33.7204
33.1355
32.4684
31.7247
30.9046
30.0045
29.0202
27.9493
26.7943
25.5642
24.2742
22.9438
21.5946
20.2487
18.9271
17.6491
16.4301
15.2803
14.2037
13.1983
12.2577
11.373
10.5343
9.73213
8.95796
8.20469
7.46662
6.73933
6.01954
5.30484
4.59351
3.88436
3.17659
2.46967
1.7633
1.05733
0.351866
34.9869
34.7074
34.3024
33.7931
33.1973
32.5256
31.7819
30.9644
30.0676
29.0847
28.0113
26.8488
25.6064
24.3009
22.9535
21.5871
20.2248
18.8887
17.5992
16.373
15.221
14.1467
13.147
12.214
11.3375
10.5065
9.71117
8.94262
8.19377
7.45905
6.73422
6.01619
5.3027
4.59219
3.88358
3.17615
2.46942
1.76313
1.05719
0.35174
35.0277
34.6912
34.2577
33.7346
33.1311
32.4536
31.7043
30.8816
29.9809
28.9971
27.9275
26.7742
25.5461
24.2588
22.9321
21.5873
20.2459
18.9288
17.6549
16.4396
15.2931
14.219
13.2152
12.2751
11.39
10.5501
9.74628
8.97019
8.21495
7.475
6.74604
6.0248
5.30889
4.59659
3.88668
3.17832
2.47095
1.76424
1.05797
0.35205
35.139
34.7475
34.2776
33.7321
33.115
32.4293
31.6752
30.85
29.9487
28.9659
27.8983
26.7478
25.5234
24.2412
22.9211
21.5837
20.2499
18.9394
17.6709
16.46
15.3169
14.2449
13.2416
12.3007
11.4135
10.5709
9.76392
8.98476
8.22668
7.48425
6.75318
6.03023
5.31296
4.5996
3.88888
3.17992
2.47212
1.76507
1.05848
0.352153
35.3082