# vtk DataFile Version 2.0
I need something to put here
ASCII

DATASET STRUCTURED_GRID
DIMENSIONS 41 21 21
POINTS 18081 float
0.000000 0.000000 0.000000
0.100000 0.000000 0.000000
0.200000 0.000000 0.000000
0.300000 0.000000 0.000000
0.400000 0.000000 0.000000
0.500000 0.000000 0.000000
0.600000 0.000000 0.000000
0.700000 0.000000 0.000000
0.800000 0.000000 0.000000
0.900000 0.000000 0.000000
1.000000 0.000000 0.000000
1.100000 0.000000 0.000000
1.200000 0.000000 0.000000
1.300000 0.000000 0.000000
1.400000 0.000000 0.000000
1.500000 0.000000 0.000000
1.600000 0.000000 0.000000
1.700000 0.000000 0.000000
1.800000 0.000000 0.000000
1.900000 0.000000 0.000000
2.000000 0.000000 0.000000
2.100000 0.000000 0.000000
2.200000 0.000000 0.000000
2.300000 0.000000 0.000000
2.400000 0.000000 0.000000
2.500000 0.000000 0.000000
2.600000 0.000000 0.000000
2.700000 0.000000 0.000000
2.800000 0.000000 0.000000
2.900000 0.000000 0.000000
3.000000 0.000000 0.000000
3.100000 0.000000 0.000000
3.200000 0.000000 0.000000
3.300000 0.000000 0.000000
3.400000 0.000000 0.000000
3.500000 0.000000 0.000000
3.600000 0.000000 0.000000
3.700000 0.000000 0.000000
3.800000 0.000000 0.000000
3.900000 0.000000 0.000000
4.000000 0.000000 0.000000
0.000000 0.100000 0.000000
0.100000 0.100000 0.000000
0.200000 0.100000 0.000000
0.300000 0.100000 0.000000
0.400000 0.100000 0.000000
0.500000 0.100000 0.000000
0.600000 0.100000 0.000000
0.700000 0.100000 0.000000
0.800000 0.100000 0.000000
0.900000 0.100000 0.000000
1.000000 0.100000 0.000000
1.100000 0.100000 0.000000
1.200000 0.100000 0.000000
1.300000 0.100000 0.000000
1.400000 0.100000 0.000000
1.500000 0.100000 0.000000
1.600000 0.100000 0.000000
1.700000 0.100000 0.000000
1.800000 0.100000 0.000000
1.900000 0.100000 0.000000
2.000000 0.100000 0.000000
2.100000 0.100000 0.000000
2.200000 0.100000 0.000000
2.300000 0.100000 0.000000
2.400000 0.100000 0.000000
2.500000 0.100000 0.000000
2.600000 0.100000 0.000000
2.700000 0.100000 0.000000
2.800000 0.100000 0.000000
2.900000 0.100000 0.000000
3.000000 0.100000 0.000000
3.100000 0.100000 0.000000
3.200000 0.100000 0.000000
3.300000 0.100000 0.000000
3.400000 0.100000 0.000000
3.500000 0.100000 0.000000
3.600000 0.100000 0.000000
3.700000 0.100000 0.000000
3.800000 0.100000 0.000000
3.900000 0.100000 0.000000
4.000000 0.100000 0.000000
0.000000 0.200000 0.000000
0.100000 0.200000 0.000000
0.200000 0.200000 0.000000
0.300000 0.200000 0.000000
0.400000 0.200000 0.000000
0.500000 0.200000 0.000000
0.600000 0.200000 0.000000
0.700000 0.200000 0.000000
0.800000 0.200000 0.000000
0.900000 0.200000 0.000000
1.000000 0.200000 0.000000
1.100000 0.200000 0.000000
1.200000 0.200000 0.000000
1.300000 0.200000 0.000000
1.400000 0.200000 0.000000
1.500000 0.200000 0.000000
1.600000 0.200000 0.000000
1.700000 0.200000 0.000000
1.800000 0.200000 0.000000
1.900000 0.200000 0.000000
2.000000 0.200000 0.000000
2.100000 0.200000 0.000000
2.200000 0.200000 0.000000
2.300000 0.200000 0.000000
2.400000 0.200000 0.000000
2.500000 0.200000 0.000000
2.600000 0.200000 0.000000
2.700000 0.200000 0.000000
2.800000 0.200000 0.000000
2.900000 0.200000 0.000000
3.000000 0.200000 0.000000
3.100000 0.200000 0.000000
3.200000 0.200000 0.000000
3.300000 0.200000 0.000000
3.400000 0.200000 0.000000
3.500000 0.200000 0.000000
3.600000 0.200000 0.000000
3.700000 0.200000 0.000000
3.800000 0.200000 0.000000
3.900000 0.200000 0.000000
4.000000 0.200000 0.000000
0.000000 0.300000 0.000000
0.100000 0.300000 0.000000
0.200000 0.300000 0.000000
0.300000 0.300000 0.000000
0.400000 0.300000 0.000000
0.500000 0.300000 0.000000
0.600000 0.300000 0.000000
0.700000 0.300000 0.000000
0.800000 0.300000 0.000000
0.900000 0.300000 0.000000
1.000000 0.300000 0.000000
1.100000 0.300000 0.000000
1.200000 0.300000 0.000000
1.300000 0.300000 0.000000
1.400000 0.300000 0.000000
1.500000 0.300000 0.000000
1.600000 0.300000 0.000000
1.700000 0.300000 0.000000
1.800000 0.300000 0.000000
1.900000 0.300000 0.000000
2.000000 0.300000 0.000000
2.100000 0.300000 0.000000
2.200000 0.300000 0.000000
2.300000 0.300000 0.000000
2.400000 0.300000 0.000000
2.500000 0.300000 0.000000
2.600000 0.300000 0.000000
2.700000 0.300000 0.000000
2.800000 0.300000 0.000000
2.900000 0.300000 0.000000
3.000000 0.300000 0.000000
3.100000 0.300000 0.000000
3.200000 0.300000 0.000000
3.300000 0.300000 0.000000
3.400000 0.300000 0.000000
3.500000 0.300000 0.000000
3.600000 0.300000 0.000000
3.700000 0.300000 0.000000
3.800000 0.300000 0.000000
3.900000 0.300000 0.000000
4.000000 0.300000 0.000000
0.000000 0.400000 0.000000
0.100000 0.400000 0.000000
0.200000 0.400000 0.000000
0.300000 0.400000 0.000000
0.400000 0.400000 0.000000
0.500000 0.400000 0.000000
0.600000 0.400000 0.000000
0.700000 0.400000 0.000000
0.800000 0.400000 0.000000
0.900000 0.400000 0.000000
1.000000 0.400000 0.000000
1.100000 0.400000 0.000000
1.200000 0.400000 0.000000
1.300000 0.400000 0.000000
1.400000 0.400000 0.000000
1.500000 0.400000 0.000000
1.600000 0.400000 0.000000
1.700000 0.400000 0.000000
1.800000 0.400000 0.000000
1.900000 0.400000 0.000000
2.000000 0.400000 0.000000
2.100000 0.400000 0.000000
2.200000 0.400000 0.000000
2.300000 0.400000 0.000000
2.400000 0.400000 0.000000
2.500000 0.400000 0.000000
2.600000 0.400000 0.000000
2.700000 0.400000 0.000000
2.800000 0.400000 0.000000
2.900000 0.400000 0.000000
3.000000 0.400000 0.000000
3.100000 0.400000 0.000000
3.200000 0.400000 0.000000
3.300000 0.400000 0.000000
3.400000 0.400000 0.000000
3.500000 0.400000 0.000000
3.600000 0.400000 0.000000
3.700000 0.400000 0.000000
3.800000 0.400000 0.000000
3.900000 0.400000 0.000000
4.000000 0.400000 0.000000
0.000000 0.500000 0.000000
0.100000 0.500000 0.000000
0.200000 0.500000 0.000000
0.300000 0.500000 0.000000
0.400000 0.500000 0.000000
0.500000 0.500000 0.000000
0.600000 0.500000 0.000000
0.700000 0.500000 0.000000
0.800000 0.500000 0.000000
0.900000 0.500000 0.000000
1.000000 0.500000 0.000000
1.100000 0.500000 0.000000
1.200000 0.500000 0.000000
1.300000 0.500000 0.000000
1.400000 0.500000 0.000000
1.500000 0.500000 0.000000
1.600000 0.500000 0.000000
1.700000 0.500000 0.000000
1.800000 0.500000 0.000000
1.900000 0.500000 0.000000
2.000000 0.500000 0.000000
2.100000 0.500000 0.000000
2.200000 0.500000 0.000000
2.300000 0.500000 0.000000
2.400000 0.500000 0.000000
2.500000 0.500000 0.000000
2.600000 0.500000 0.000000
2.700000 0.500000 0.000000
2.800000 0.500000 0.000000
2.900000 0.500000 0.000000
3.000000 0.500000 0.000000
3.100000 0.500000 0.000000
3.200000 0.500000 0.000000
3.300000 0.500000 0.000000
3.400000 0.500000 0.000000
3.500000 0.500000 0.000000
3.600000 0.500000 0.000000
3.700000 0.500000 0.000000
3.800000 0.500000 0.000000
3.900000 0.500000 0.000000
4.000000 0.500000 0.000000
0.000000 0.600000 0.000000
0.100000 0.600000 0.000000
0.200000 0.600000 0.000000
0.300000 0.600000 0.000000
0.400000 0.600000 0.000000
0.500000 0.600000 0.000000
0.600000 0.600000 0.000000
0.700000 0.600000 0.000000
0.800000 0.600000 0.000000
0.900000 0.600000 0.000000
1.000000 0.600000 0.000000
1.100000 0.600000 0.000000
1.200000 0.600000 0.000000
1.300000 0.600000 0.000000
1.400000 0.600000 0.000000
1.500000 0.600000 0.000000
1.600000 0.600000 0.000000
1.700000 0.600000 0.000000
1.800000 0.600000 0.000000
1.900000 0.600000 0.000000
2.000000 0.600000 0.000000
2.100000 0.600000 0.000000
2.200000 0.600000 0.000000
2.300000 0.600000 0.000000
2.400000 0.600000 0.000000
2.500000 0.600000 0.000000
2.600000 0.600000 0.000000
2.700000 0.600000 0.000000
2.800000 0.600000 0.000000
2.900000 0.600000 0.000000
3.000000 0.600000 0.000000
3.100000 0.600000 0.000000
3.200000 0.600000 0.000000
3.300000 0.600000 0.000000
3.400000 0.600000 0.000000
3.500000 0.600000 0.000000
3.600000 0.600000 0.000000
3.700000 0.600000 0.000000
3.800000 0.600000 0.000000
3.900000 0.600000 0.000000
4.000000 0.600000 0.000000
0.000000 0.700000 0.000000
0.100000 0.700000 0.000000
0.200000 0.700000 0.000000
0.300000 0.700000 0.000000
0.400000 0.700000 0.000000
0.500000 0.700000 0.000000
0.600000 0.700000 0.000000
0.700000 0.700000 0.000000
0.800000 0.700000 0.000000
0.900000 0.700000 0.000000
1.000000 0.700000 0.000000
1.100000 0.700000 0.000000
1.200000 0.700000 0.000000
1.300000 0.700000 0.000000
1.400000 0.700000 0.000000
1.500000 0.700000 0.000000
1.600000 0.700000 0.000000
1.700000 0.700000 0.000000
1.800000 0.700000 0.000000
1.900000 0.700000 0.000000
2.000000 0.700000 0.000000
2.100000 0.700000 0.000000
2.200000 0.700000 0.000000
2.300000 0.700000 0.000000
2.400000 0.700000 0.000000
2.500000 0.700000 0.000000
2.600000 0.700000 0.000000
2.700000 0.700000 0.000000
2.800000 0.700000 0.000000
2.900000 0.700000 0.000000
3.000000 0.700000 0.000000
3.100000 0.700000 0.000000
3.200000 0.700000 0.000000
3.300000 0.700000 0.000000
3.400000 0.700000 0.000000
3.500000 0.700000 0.000000
3.600000 0.700000 0.000000
3.700000 0.700000 0.000000
3.800000 0.700000 0.000000
3.900000 0.700000 0.000000
4.000000 0.700000 0.000000
0.000000 0.800000 0.000000
0.100000 0.800000 0.000000
0.200000 0.800000 0.000000
0.300000 0.800000 0.000000
0.400000 0.800000 0.000000
0.500000 0.800000 0.000000
0.600000 0.800000 0.000000
0.700000 0.800000 0.000000
0.800000 0.800000 0.000000
0.900000 0.800000 0.000000
1.000000 0.800000 0.000000
1.100000 0.800000 0.000000
1.200000 0.800000 0.000000
1.300000 0.800000 0.000000
1.400000 0.800000 0.000000
1.500000 0.800000 0.000000
1.600000 0.800000 0.000000
1.700000 0.800000 0.000000
1.800000 0.800000 0.000000
1.900000 0.800000 0.000000
2.000000 0.800000 0.000000
2.100000 0.800000 0.000000
2.200000 0.800000 0.000000
2.300000 0.800000 0.000000
2.400000 0.800000 0.000000
2.500000 0.800000 0.000000
2.600000 0.800000 0.000000
2.700000 0.800000 0.000000
2.800000 0.800000 0.000000
2.900000 0.800000 0.000000
3.000000 0.800000 0.000000
3.100000 0.800000 0.000000
3.200000 0.800000 0.000000
3.300000 0.800000 0.000000
3.400000 0.800000 0.000000
3.500000 0.800000 0.000000
3.600000 0.800000 0.000000
[...]
CELL_DATA 16000
SCALARS pressure float 1
LOOKUP_TABLE default
26.2175
26.0348
25.6968
25.2456
24.7147
24.1283
23.5034
22.8521
22.1827
21.5008
20.8105
20.1145
19.4147
18.7123
18.0083
17.3032
16.5976
15.8916
15.1854
14.4792
13.7731
13.0669
12.3607
11.6545
10.9483
10.242
9.53576
8.82947
8.12316
7.41683
6.71049
6.00414
5.29778
4.59142
3.88505
3.17869
2.47231
1.76594
1.05957
0.35319
26.2761
26.0661
25.7135
25.2544
24.7193
24.1306
23.5045
22.8525
22.1827
21.5007
20.8103
20.1143
19.4145
18.7122
18.0082
17.3032
16.5975
15.8915
15.1854
14.4792
13.773
13.0669
12.3607
11.6545
10.9483
10.242
9.53575
8.82946
8.12316
7.41683
6.71049
6.00414
5.29778
4.59142
3.88505
3.17869
2.47231
1.76594
1.05957
0.35319
26.3962
26.1467
25.7672
25.2902
24.743
24.1463
23.5149
22.8594
22.1872
21.5036
20.8122
20.1155
19.4153
18.7127
18.0085
17.3033
16.5975
15.8915
15.1853
14.4792
13.773
13.0668
12.3607
11.6545
10.9483
10.242
9.53576
8.82947
8.12316
7.41683
6.71049
6.00414
5.29778
4.59142
3.88506
3.17869
2.47231
1.76594
1.05957
0.353191
26.5521
26.2582
25.8455
25.3445
24.7804
24.1719
23.5323
22.8711
22.1951
21.5089
20.8157
20.1179
19.4168
18.7136
18.009
17.3036
16.5977
15.8915
15.1853
14.4791
13.773
13.0668
12.3607
11.6545
10.9483
10.242
9.53578
8.82949
8.12317
7.41684
6.7105
6.00415
5.29779
4.59142
3.88506
3.17869
2.47232
1.76594
1.05957
0.353192
26.7218
26.3844
25.9367
25.4093
24.826
24.2036
23.5542
22.8861
22.2053
21.5158
20.8204
20.121
19.4189
18.7149
18.0098
17.304
16.5978
15.8916
15.1853
14.4791
13.773
13.0668
12.3607
11.6545
10.9483
10.2421
9.53581
8.82951
8.12319
7.41686
6.71051
6.00415
5.29779
4.59143
3.88506
3.17869
2.47232
1.76594
1.05957
0.353193
26.8872
26.511
26.0303
25.4772
24.8743
24.2377
23.578
22.9026
22.2166
21.5234
20.8255
20.1244
19.4212
18.7165
18.0108
17.3045
16.5981
15.8916
15.1853
14.4791
13.7729
13.0668
12.3607
11.6546
10.9484
10.2421
9.53584
8.82954
8.12321
7.41687
6.71052
6.00416
5.2978
4.59143
3.88506
3.17869
2.47232
1.76594
1.05957
0.353194
27.0345
26.626
26.1169
25.5408
24.9203
24.2704
23.601
22.9186
22.2276
21.531
20.8307
20.1279
19.4235
18.718
18.0117
17.305
16.5983
15.8916
15.1852
14.479
13.7729
13.0668
12.3607
11.6546
10.9484
10.2422
9.53588
8.82957
8.12324
7.41689
6.71054
6.00417
5.29781
4.59144
3.88507
3.17869
2.47232
1.76595
1.05957
0.353194
27.1535
26.7202
26.1888
25.5941
24.9591
24.2982
23.6207
22.9323
22.2371
21.5375
20.8351
20.131
19.4256
18.7194
18.0126
17.3055
16.5984
15.8916
15.1852
14.479
13.7729
13.0669
12.3608
11.6547
10.9485
10.2422
9.53592
8.8296
8.12326
7.41691
6.71055
6.00418
5.29781
4.59144
3.88507
3.1787
2.47232
1.76595
1.05957
0.353195
27.2366
26.7867
26.2399
25.6324
24.9872
24.3185
23.635
22.9424
22.2441
21.5423
20.8384
20.1332
19.4272
18.7204
18.0132
17.3058
16.5986
15.8916
15.1851
14.4789
13.7729
13.0669
12.3608
11.6547
10.9485
10.2422
9.53595
8.82962
8.12328
7.41692
6.71056
6.00419
5.29782
4.59145
3.88507
3.1787
2.47232
1.76595
1.05957
0.353196
27.2794
26.8211
26.2665
25.6523
25.0019
24.3291
23.6426
22.9477
22.2478
21.5449
20.8402
20.1345
19.428
18.721
18.0136
17.306
16.5987
15.8917
15.1851
14.4789
13.7729
13.0669
12.3609
11.6547
10.9485
10.2423
9.53597
8.82964
8.1233
7.41694
6.71057
6.0042
5.29782
4.59145
3.88507
3.1787
2.47232
1.76595
1.05957
0.353196
27.2794
26.8211
26.2665
25.6524
25.0019
24.3291
23.6426
22.9477
22.2478
21.5449
20.8402
20.1345
19.4281
18.721
18.0136
17.3061
16.5987
15.8917
15.1852
14.479
13.773
13.0669
12.3609
11.6548
10.9486
10.2423
9.53599
8.82965
8.1233
7.41694
6.71057
6.0042
5.29783
4.59145
3.88508
3.1787
2.47232
1.76595
1.05957
0.353197
27.2367
26.7868
26.2399
25.6324
24.9872
24.3185
23.6351
22.9425
22.2442
21.5424
20.8385
20.1334
19.4273
18.7206
18.0134
17.306
16.5987
15.8918
15.1853
14.4791
13.773
13.067
12.3609
11.6548
10.9486
10.2423
9.53599
8.82966
8.1233
7.41694
6.71057
6.0042
5.29783
4.59145
3.88508
3.1787
2.47232
1.76595
1.05957
0.353197
27.1535
26.7203
26.1888
25.5942
24.9592
24.2983
23.6207
22.9324
22.2372
21.5376
20.8353
20.1312
19.4258
18.7196
18.0128
17.3058
16.5987
15.8919
15.1854
14.4792
13.7731
13.067
12.3609
11.6548
10.9486
10.2423
9.53598
8.82965
8.1233
7.41694
6.71057
6.0042
5.29782
4.59145
3.88507
3.1787
2.47232
1.76595
1.05957
0.353197
27.0346
26.6261
26.117
25.5409
24.9204
24.2705
23.6011
22.9187
22.2277
21.5311
20.8309
20.1282
19.4238
18.7183
18.0121
17.3054
16.5986
15.892
15.1855
14.4793
13.7732
13.0671
12.3609
11.6548
10.9485
10.2423
9.53596
8.82963
8.12329
7.41693
6.71056
6.00419
5.29782
4.59145
3.88507
3.1787
2.47232
1.76595
1.05957
0.353197
26.8873
26.5111
26.0304
25.4773
24.8745
24.2378
23.5781
22.9027
22.2168
21.5237
20.8258
20.1248
19.4216
18.7169
18.0112
17.305
16.5985
15.892
15.1857
14.4794
13.7732
13.0671
12.3609
11.6548
10.9485
10.2422
9.53594
8.82962
8.12327
7.41692
6.71056
6.00419
5.29782
4.59144
3.88507
3.1787
2.47232
1.76595
1.05957
0.353196
26.7219
26.3845
25.9368
25.4094
24.8261
24.2037
23.5544
22.8863
22.2055
21.516
20.8207
20.1213
19.4193
18.7154
18.0103
17.3045
16.5983
15.892
15.1857
14.4795
13.7733
13.0671
12.3609
11.6547
10.9485
10.2422
9.53592
8.8296
8.12326
7.41691
6.71055
6.00418
5.29781
4.59144
3.88507
3.17869
2.47232
1.76594
1.05957
0.353195
26.5523
26.2584
25.8456
25.3446
24.7805
24.172
23.5325
22.8713
22.1953
21.5092
20.816
20.1182
19.4172
18.7141
18.0095
17.3041
16.5982
15.892
15.1858
14.4796
13.7734
13.0672
12.3609
11.6547
10.9485
10.2422
9.5359
8.82958
8.12324
7.4169
6.71054
6.00418
5.29781
4.59144
3.88506
3.17869
2.47232
1.76594
1.05957
0.353194
26.3963
26.1469
25.7674
25.2903
24.7432
24.1465
23.5151
22.8596
22.1874
21.5039
20.8125
20.1159
19.4157
18.7131
18.009
17.3038
16.5981
15.892
15.1858
14.4796
13.7734
13.0672
12.3609
11.6547
10.9485
10.2422
9.53588
8.82957
8.12323
7.41689
6.71053
6.00417
5.2978
4.59143
3.88506
3.17869
2.47231
1.76594
1.05957
0.353192
26.2762
26.0662
25.7136
25.2546
24.7194
24.1307
23.5046
22.8527
22.1829
21.5009
20.8106
20.1147
19.4149
18.7126
18.0087
17.3037
16.598
15.892
15.1859
14.4796
13.7734
13.0672
12.3609
11.6547
10.9485
10.2422
9.53587
8.82956
8.12322
7.41688
6.71053
6.00417
5.2978
4.59143
3.88506
3.17869
2.47231
1.76594
1.05956
0.353191
26.2176
26.0349
25.6969
25.2457
24.7148
24.1284
23.5036
22.8523
22.1829
21.5011
20.8108
20.1149
19.4151
18.7128
18.0088
17.3038
16.5981
15.8921
15.1859
14.4797
13.7734
13.0672
12.361
11.6547
10.9484
10.2422
9.53587
8.82955
8.12322
7.41688
6.71052
6.00416
5.2978
4.59143
3.88506
3.17869
2.47231
1.76594
1.05956
0.353189
26.2761
26.0661
25.7135
25.2544
24.7193
24.1306
23.5045
22.8525
22.1827
21.5007
20.8103
20.1143
19.4145
18.7122
18.0082
17.3032
16.5975
15.8915
15.1854
14.4792
13.773
13.0669
12.3607
11.6545
10.9483
10.242
9.53575
8.82946
8.12316
7.41683
6.71049
6.00414
5.29778
4.59142
3.88505
3.17869
2.47231
1.76594
1.05957
0.35319
26.3268
26.077
25.7074
25.2428
24.707
24.1196
23.4954
22.8453
22.1772
21.4965
20.8072
20.112
19.4129
18.711
18.0074
17.3026
16.5971
15.8913
15.1852
14.4791
13.773
13.0668
12.3606
11.6544
10.9482
10.242
9.53574
8.82945
8.12314
7.41682
6.71048
6.00413
5.29778
4.59142
3.88505
3.17868
2.47231
1.76594
1.05956
0.35319
26.4469
26.1481
25.7487
25.2663
24.7201
24.1267
23.499
22.847
22.1778
21.4965
20.807
20.1117
19.4125
18.7107
18.0071
17.3024
16.5969
15.8911
15.1851
14.479
13.7729
13.0668
12.3606
11.6544
10.9482
10.242
9.53573
8.82945
8.12314
7.41682
6.71048
6.00413
5.29778
4.59142
3.88505
3.17868
2.47231
1.76594
1.05956
0.35319
26.6088
26.2561
25.8204
25.3136
24.7511
24.1469
23.5121
22.8553
22.183
21.4998
20.809
20.113
19.4133
18.7111
18.0073
17.3024
16.5969
15.891
15.185
14.4789
13.7728
13.0667
12.3606
11.6544
10.9482
10.242
9.53574
8.82945
8.12315
7.41682
6.71048
6.00413
5.29778
4.59142
3.88505
3.17868
2.47231
1.76594
1.05956
0.35319
26.7867
26.3817
25.9083
25.3745
24.7929
24.1753
23.5312
22.8681
22.1915
21.5054
20.8126
20.1153
19.4147
18.712
18.0078
17.3027
16.597
15.891
15.185
14.4789
13.7728
13.0667
12.3606
11.6544
10.9482
10.242
9.53576
8.82947
8.12316
7.41683
6.71049
6.00414
5.29778
4.59142
3.88505
3.17868
2.47231
1.76594
1.05956
0.35319
26.9606
26.5089
26.0002
25.44
24.8389
24.2073
23.5532
22.8831
22.2016
21.5121
20.8171
20.1182
19.4167
18.7132
18.0085
17.303
16.5971
15.891
15.1849
14.4788
13.7728
13.0667
12.3606
11.6545
10.9483
10.242
9.53578
8.82949
8.12317
7.41684
6.7105
6.00415
5.29779
4.59142
3.88505
3.17868
2.47231
1.76594
1.05956
0.35319
27.1154
26.6249
26.0859
25.5021
24.8834
24.2386
23.5751
22.8982
22.2119
21.5191
20.8218
20.1214
19.4187
18.7146
18.0093
17.3034
16.5973
15.891
15.1849
14.4788
13.7727
13.0667
12.3606
11.6545
10.9483
10.2421
9.53581
8.82951
8.12319
7.41686
6.71051
6.00415
5.29779
4.59143
3.88506
3.17868
2.47231
1.76594
1.05956
0.35319
27.2402
26.7201
26.1571
25.5546
24.9213
24.2656
23.594
22.9113
22.2209
21.5252
20.8259
20.1242
19.4206
18.7158
18.0101
17.3038
16.5974
15.891
15.1848
14.4787
13.7727
13.0667
12.3606
11.6545
10.9483
10.2421
9.53584
8.82954
8.12321
7.41687
6.71052
6.00416
5.2978
4.59143
3.88506
3.17869
2.47231
1.76594
1.05956
0.35319
27.3274
26.7873
26.208
25.5923
24.9488
24.2854
23.608
22.9211
22.2276
21.5298
20.8291
20.1263
19.422
18.7167
18.0106
17.3042
16.5976
15.8911
15.1848
14.4787
13.7727
13.0667
12.3607
11.6546
10.9484
10.2421
9.53587
8.82956
8.12323
7.41688
6.71053
6.00417
5.2978
4.59143
3.88506
3.17869
2.47231
1.76594
1.05956
0.35319
27.3721
26.822
26.2344
25.612
24.9632
24.2957
23.6154
22.9262
22.2312
21.5323
20.8308
20.1274
19.4228
18.7173
18.011
17.3044
16.5976
15.8911
15.1848
14.4787
13.7727
13.0668
12.3607
11.6546
10.9484
10.2422
9.53589
8.82957
8.12324
7.41689
6.71054
6.00417
5.29781
4.59143
3.88506
3.17869
2.47231
1.76594
1.05956
0.35319
27.3721
26.822
26.2345
25.612
24.9633
24.2958
23.6154
22.9263
22.2312
21.5323
20.8308
20.1275
19.4229
18.7173
18.011
17.3044
16.5977
15.8912
15.1849
14.4788
13.7728
13.0668
12.3607
11.6546
10.9484
10.2422
9.5359
8.82958
8.12325
7.4169
6.71054
6.00418
5.29781
4.59144
3.88506
3.17869
2.47231
1.76594
1.05956
0.35319
27.3274
26.7873
26.2081
25.5924
24.9489
24.2854
23.608
22.9211
22.2277
21.5299
20.8292
20.1264
19.4222
18.7169
18.0108
17.3043
16.5977
15.8912
15.185
14.4789
13.7728
13.0668
12.3608
11.6546
10.9484
10.2422
9.5359
8.82959
8.12325
7.4169
6.71054
6.00418
5.29781
4.59144
3.88506
3.17869
2.47231
1.76594
1.05956
0.35319
27.2403
26.7202
26.1572
25.5546
24.9214
24.2657
23.5941
22.9114
22.221
21.5254
20.8261
20.1243
19.4208
18.716
18.0103
17.3041
16.5977
15.8913
15.1851
14.479
13.7729
13.0669
12.3608
11.6546
10.9484
10.2422
9.5359
8.82958
8.12325
7.4169
6.71054
6.00418
5.29781
4.59144
3.88506
3.17869
2.47231
1.76594
1.05956
0.35319
27.1155
26.625
26.0859
25.5022
24.8835
24.2387
23.5752
22.8983
22.212
21.5193
20.822
20.1216
19.419
18.7149
18.0097
17.3038
16.5976
15.8914
15.1852
14.4791
13.773
13.0669
12.3608
11.6546
10.9484
10.2422
9.53589
8.82958
8.12324
7.4169
6.71054
6.00417
5.29781
4.59144
3.88506
3.17869
2.47231
1.76594
1.05956
0.35319
26.9607
26.509
26.0003
25.4401
24.839
24.2074
23.5533
22.8833
22.2018
21.5124
20.8174
20.1185
19.417
18.7136
18.0089
17.3034
16.5975
15.8914
15.1853
14.4792
13.7731
13.067
12.3608
11.6546
10.9484
10.2422
9.53588
8.82957
8.12323
7.41689
6.71053
6.00417
5.2978
4.59143
3.88506
3.17869
2.47231
1.76594
1.05956
0.35319
26.7868
26.3818
25.9084
25.3746
24.793
24.1754
23.5313
22.8683
22.1917
21.5056
20.8129
20.1156
19.4151
18.7124
18.0082
17.3031
16.5974
15.8914
15.1854
14.4793
13.7731
13.067
12.3608
11.6546
10.9484
10.2422
9.53587
8.82956
8.12323
7.41688
6.71053
6.00417
5.2978
4.59143
3.88506
3.17869
2.47231
1.76594
1.05956
0.35319
26.6089
26.2562
25.8205
25.3137
24.7513
24.147
23.5122
22.8555
22.1833
21.5001
20.8093
20.1133
19.4137
18.7115
18.0078
17.3029
16.5974
15.8915
15.1855
14.4793
13.7732
13.067
12.3609
11.6547
10.9484
10.2421
9.53586
8.82955
8.12322
7.41688
6.71052
6.00416
5.2978
4.59143
3.88506
3.17869
2.47231
1.76594
1.05956
0.35319
26.447
26.1483
25.7488
25.2665
24.7203
24.1268
23.4992
22.8472
22.178
21.4968
20.8073
20.1121
19.413
18.7112
18.0076
17.3029
16.5974
15.8916
15.1856
14.4794
13.7733
13.0671
12.3609
11.6547
10.9484
10.2421
9.53585
8.82954
8.12321
7.41687
6.71052
6.00416
5.2978
4.59143
3.88506
3.17868
2.47231
1.76594
1.05956
0.35319
26.3269
26.0772
25.7076
25.2429
24.7071
24.1197
23.4956
22.8455
22.1774
21.4968
20.8075
20.1124
19.4133
18.7115
18.0079
17.3031
16.5976
15.8918
15.1857
14.4795
13.7733
13.0671
12.3609
11.6547
10.9484
10.2422
9.53586
8.82954
8.12321
7.41687
6.71052
6.00416
5.2978
4.59143
3.88506
3.17868
2.47231
1.76594
1.05956
0.353189
26.2762
26.0662
25.7136
25.2546
24.7194
24.1307
23.5046
22.8527
22.1829
21.5009
20.8106
20.1147
19.4149
18.7126
18.0087
17.3036
16.598
15.892
15.1858
14.4796
13.7734
13.0672
12.3609
11.6547
10.9484
10.2422
9.53587
8.82955
8.12322
7.41688
6.71052
6.00416
5.2978
4.59143
3.88506
3.17868
2.47231
1.76594
1.05956
0.353189
26.3962
26.1467
25.7672
25.2902
24.743
24.1463
23.5149
22.8594
22.1872
21.5036
20.8122
20.1155
19.4153
18.7127
18.0085
17.3033
16.5975
15.8915
15.1853
14.4792
13.773
13.0668
12.3607
11.6545
10.9483
10.242
9.53576
8.82947
8.12316
7.41683
6.71049
6.00414
5.29778
4.59142
3.88506
3.17869
2.47231
1.76594
1.05957
0.353191
26.4469
26.1481
25.7487
25.2663
24.7201
24.1267
23.499
22.847
22.1778
21.4965
20.807
20.1117
19.4125
18.7107
18.0071
17.3024
16.5969
15.8911
15.1851
14.479
13.7729
13.0668
12.3606
11.6544
10.9482
10.242
9.53573
8.82945
8.12314
7.41682
6.71048
6.00413
5.29778
4.59142
3.88505
3.17868
2.47231
1.76594
1.05956
0.35319
26.5676
26.2143
25.7822
25.2816
24.7257
24.1273
23.4975
22.8446
22.1752
21.4942
20.805
20.1101
19.4113
18.7097
18.0064
17.3018
16.5965
15.8908
15.1849
14.4789
13.7728
13.0667
12.3606
11.6544
10.9482
10.242
9.53572
8.82944
8.12313
7.41681
6.71048
6.00413
5.29777
4.59141
3.88505
3.17868
2.47231
1.76594
1.05957
0.353191
26.7331
26.3209
25.8498
25.3238
24.7516
24.1431
23.5068
22.8499
22.1782
21.4957
20.8057
20.1104
19.4113
18.7096
18.0062
17.3016
16.5963
15.8906
15.1847
14.4788
13.7727
13.0666
12.3605
11.6544
10.9482
10.242
9.53572
8.82944
8.12313
7.41681
6.71047
6.00413
5.29777
4.59141
3.88505
3.17868
2.47231
1.76594
1.05956
0.353191
26.917
26.4474
25.9359
25.3817
24.7903
24.1685
23.5233
22.8606
22.1849
21.4999
20.8083
20.1119
19.4122
18.7101
18.0064
17.3016
16.5962
15.8905
15.1846
14.4787
13.7727
13.0666
12.3605
11.6544
10.9482
10.242
9.53573
8.82944
8.12314
7.41681
6.71048
6.00413
5.29777
4.59141
3.88505
3.17868
2.47231
1.76594
1.05956
0.353191
27.0978
26.5767
26.0274
25.4456
24.8344
24.1986
23.5436
22.8741
22.1938
21.5057
20.812
20.1143
19.4137
18.711
18.0069
17.3018
16.5962
15.8904
15.1845
14.4786
13.7726
13.0666
12.3605
11.6544
10.9482
10.242
9.53574
8.82946
8.12315
7.41682
6.71048
6.00413
5.29778
4.59142
3.88505
3.17868
2.47231
1.76594
1.05957
0.353191
27.2591
26.6952
26.1133
25.5071
24.8777
24.2287
23.5643
22.8881
22.2032
21.512
20.8161
20.117
19.4155
18.7121
18.0075
17.3021
16.5963
15.8903
15.1844
14.4785
13.7726
13.0666
12.3605
11.6544
10.9482
10.242
9.53577
8.82948
8.12316
7.41683
6.71049
6.00414
5.29778
4.59142
3.88505
3.17868
2.47231
1.76594
1.05957
0.353191
27.3892
26.7926
26.1851
25.5592
24.9149
24.255
23.5825
22.9006
22.2117
21.5177
20.8199
20.1195
19.4171
18.7132
18.0081
17.3024
16.5963
15.8903
15.1843
14.4784
13.7726
13.0666
12.3606
11.6545
10.9483
10.2421
9.53579
8.8295
8.12318
7.41685
6.7105
6.00415
5.29779
4.59142
3.88505
3.17868
2.47231
1.76594
1.05957
0.35319
27.4801
26.8614
26.2364
25.5968
24.942
24.2742
23.596
22.91
22.2181
21.5219
20.8228
20.1215
19.4185
18.714
18.0086
17.3026
16.5964
15.8902
15.1843
14.4784
13.7726
13.0666
12.3606
11.6545
10.9483
10.2421
9.53582
8.82952
8.1232
7.41686
6.71051
6.00415
5.29779
4.59142
3.88506
3.17869
2.47231
1.76594
1.05957
0.35319
27.5268
26.897
26.2631
25.6165
24.9563
24.2844
23.6032
22.9149
22.2215
21.5243
20.8244
20.1226
19.4192
18.7145
18.0089
17.3028
16.5964
15.8902
15.1843
14.4784
13.7726
13.0666
12.3606
11.6545
10.9483
10.2421
9.53583
8.82953
8.12321
7.41687
6.71052
6.00416
5.29779
4.59143
3.88506
3.17869
2.47232
1.76594
1.05957
0.35319
27.5268
26.897
26.2631
25.6165
24.9563
24.2844
23.6032
22.9149
22.2215
21.5243
20.8244
20.1226
19.4192
18.7146
18.009
17.3028
16.5965
15.8903
15.1843
14.4785
13.7726
13.0667
12.3606
11.6545
10.9484
10.2421
9.53585
8.82954
8.12321
7.41687
6.71052
6.00416
5.2978
4.59143
3.88506
3.17869
2.47232
1.76594
1.05957
0.35319
27.4802
26.8615
26.2364
25.5968
24.9421
24.2743
23.5961
22.91
22.2181
21.522
20.8229
20.1216
19.4186
18.7142
18.0088
17.3028
16.5965
15.8904
15.1844
14.4785
13.7727
13.0667
12.3607
11.6546
10.9484
10.2421
9.53585
8.82955
8.12322
7.41688
6.71052
6.00416
5.2978
4.59143
3.88506
3.17869
2.47232
1.76594
1.05956
0.353189
27.3893
26.7926
26.1851
25.5592
24.915
24.255
23.5826
22.9007
22.2118
21.5178
20.8201
20.1197
19.4173
18.7134
18.0084
17.3026
16.5966
15.8905
15.1845
14.4786
13.7727
13.0667
12.3607
11.6546
10.9484
10.2421
9.53585
8.82955
8.12322
7.41688
6.71052
6.00416
5.2978
4.59143
3.88506
3.17869
2.47232
1.76594
1.05956
0.353189
27.2592
26.6953
26.1134
25.5071
24.8778
24.2288
23.5644
22.8883
22.2034
21.5122
20.8163
20.1172
19.4157
18.7124
18.0078
17.3024
16.5966
15.8906
15.1847
14.4788
13.7728
13.0668
12.3607
11.6546
10.9484
10.2421
9.53585
8.82954
8.12321
7.41687
6.71052
6.00416
5.2978
4.59143
3.88506
3.17869
2.47232
1.76594
1.05956
0.353189
27.0979
26.5768
26.0275
25.4457
24.8345
24.1987
23.5437
22.8743
22.194
21.5059
20.8123
20.1146
19.414
18.7114
18.0073
17.3022
16.5966
15.8908
15.1849
14.4789
13.7729
13.0668
12.3607
11.6546
10.9484
10.2421
9.53584
8.82953
8.12321
7.41687
6.71052
6.00416
5.2978
4.59143
3.88506
3.17869
2.47231
1.76594
1.05956
0.353189
26.9171
26.4475
25.936
25.3819
24.7904
24.1686
23.5235
22.8608
22.1851
21.5002
20.8086
20.1122
19.4126
18.7105
18.0068
17.3021
16.5967
15.8909
15.185
14.479
13.773
13.0669
12.3608
11.6546
10.9484
10.2421
9.53584
8.82953
8.1232
7.41686
6.71051
6.00416
5.29779
4.59143
3.88506
3.17869
2.47231
1.76594
1.05956
0.353189
26.7332
26.321
25.8499
25.3239
24.7518
24.1432
23.5069
22.8501
22.1784
21.496
20.806
20.1107
19.4117
18.71
18.0066
17.3021
16.5968
15.8911
15.1852
14.4792
13.7731
13.067
12.3608
11.6546
10.9484
10.2421
9.53583
8.82953
8.1232
7.41686
6.71051
6.00416
5.29779
4.59143
3.88506
3.17868
2.47231
1.76594
1.05956
0.353188
26.5677
26.2144
25.7823
25.2817
24.7258
24.1275
23.4976
22.8448
22.1755
21.4945
20.8053
20.1105
19.4117
18.7102
18.0069
17.3023
16.597
15.8913
15.1854
14.4793
13.7732
13.067
12.3608
11.6546
10.9484
10.2421
9.53584
8.82953
8.1232
7.41686
6.71051
6.00415
5.29779
4.59142
3.88505
3.17868
2.47231
1.76594
1.05956
0.353188
26.447
26.1483
25.7488
25.2665
24.7203
24.1268
23.4992
22.8472
22.178
21.4968
20.8073
20.1121
19.413
18.7112
18.0076
17.3029
16.5974
15.8916
15.1856
14.4794
13.7733
13.0671
12.3609
11.6547
10.9484
10.2421
9.53585
8.82954
8.12321
7.41687
6.71052
6.00416
5.29779
4.59142
3.88505
3.17868
2.47231
1.76594
1.05956
0.353188
26.3963
26.1469
25.7674
25.2903
24.7432
24.1465
23.5151
22.8596
22.1874
21.5039
20.8125
20.1159
19.4157
18.7131
18.0089
17.3038
16.598
15.892
15.1858
14.4796
13.7734
13.0671
12.3609
11.6547
10.9484
10.2422
9.53587
8.82955
8.12322
7.41688
6.71052
6.00416
5.2978
4.59143
3.88506
3.17868
2.47231
1.76594
1.05956
0.353188
26.5521
26.2582
25.8455
25.3445
24.7804
24.1719
23.5323
22.8711
22.1951
21.5089
20.8157
20.1179
19.4168
18.7136
18.009
17.3036
16.5977
15.8915
15.1853
14.4791
13.773
13.0668
12.3607
11.6545
10.9483
10.242
9.53578
8.82949
8.12317
7.41684
6.7105
6.00415
5.29779
4.59142
3.88506
3.17869
2.47232
1.76594
1.05957
0.353192
26.6088
26.2561
25.8204
25.3136
24.7511
24.1469
23.5121
22.8553
22.183
21.4998
20.809
20.113
19.4133
18.7111
18.0073
17.3024
16.5969
15.891
15.185
14.4789
13.7728
13.0667
12.3606
11.6544
10.9482
10.242
9.53574
8.82945
8.12315
7.41682
6.71048
6.00413
5.29778
4.59142
3.88505
3.17868
2.47231
1.76594
1.05956
0.35319
26.7331
26.3209
25.8498
25.3238
24.7516
24.1431
23.5068
22.8499
22.1782
21.4957
20.8057
20.1104
19.4113
18.7096
18.0062
17.3016
16.5963
15.8906
15.1847
14.4788
13.7727
13.0666
12.3605
11.6544
10.9482
10.242
9.53572
8.82944
8.12313
7.41681
6.71047
6.00413
5.29777
4.59141
3.88505
3.17868