# vtk DataFile Version 2.0
I need something to put here
ASCII

DATASET STRUCTURED_GRID
DIMENSIONS 41 21 21
POINTS 18081 float
0.000000 0.000000 0.000000
0.100000 0.000000 0.000000
0.200000 0.000000 0.000000
0.300000 0.000000 0.000000
0.400000 0.000000 0.000000
0.500000 0.000000 0.000000
0.600000 0.000000 0.000000
0.700000 0.000000 0.000000
0.800000 0.000000 0.000000
0.900000 0.000000 0.000000
1.000000 0.000000 0.000000
1.100000 0.000000 0.000000
1.200000 0.000000 0.000000
1.300000 0.000000 0.000000
1.400000 0.000000 0.000000
1.500000 0.000000 0.000000
1.600000 0.000000 0.000000
1.700000 0.000000 0.000000
1.800000 0.000000 0.000000
1.900000 0.000000 0.000000
2.000000 0.000000 0.000000
2.100000 0.000000 0.000000
2.200000 0.000000 0.000000
2.300000 0.000000 0.000000
2.400000 0.000000 0.000000
2.500000 0.000000 0.000000
2.600000 0.000000 0.000000
2.700000 0.000000 0.000000
2.800000 0.000000 0.000000
2.900000 0.000000 0.000000
3.000000 0.000000 0.000000
3.100000 0.000000 0.000000
3.200000 0.000000 0.000000
3.300000 0.000000 0.000000
3.400000 0.000000 0.000000
3.500000 0.000000 0.000000
3.600000 0.000000 0.000000
3.700000 0.000000 0.000000
3.800000 0.000000 0.000000
3.900000 0.000000 0.000000
4.000000 0.000000 0.000000
0.000000 0.100000 0.000000
0.100000 0.100000 0.000000
0.200000 0.100000 0.000000
0.300000 0.100000 0.000000
0.400000 0.100000 0.000000
0.500000 0.100000 0.000000
0.600000 0.100000 0.000000
0.700000 0.100000 0.000000
0.800000 0.100000 0.000000
0.900000 0.100000 0.000000
1.000000 0.100000 0.000000
1.100000 0.100000 0.000000
1.200000 0.100000 0.000000
1.300000 0.100000 0.000000
1.400000 0.100000 0.000000
1.500000 0.100000 0.000000
1.600000 0.100000 0.000000
1.700000 0.100000 0.000000
1.800000 0.100000 0.000000
1.900000 0.100000 0.000000
2.000000 0.100000 0.000000
2.100000 0.100000 0.000000
2.200000 0.100000 0.000000
2.300000 0.100000 0.000000
2.400000 0.100000 0.000000
2.500000 0.100000 0.000000
2.600000 0.100000 0.000000
2.700000 0.100000 0.000000
2.800000 0.100000 0.000000
2.900000 0.100000 0.000000
3.000000 0.100000 0.000000
3.100000 0.100000 0.000000
3.200000 0.100000 0.000000
3.300000 0.100000 0.000000
3.400000 0.100000 0.000000
3.500000 0.100000 0.000000
3.600000 0.100000 0.000000
3.700000 0.100000 0.000000
3.800000 0.100000 0.000000
3.900000 0.100000 0.000000
4.000000 0.100000 0.000000
0.000000 0.200000 0.000000
0.100000 0.200000 0.000000
0.200000 0.200000 0.000000
0.300000 0.200000 0.000000
0.400000 0.200000 0.000000
0.500000 0.200000 0.000000
0.600000 0.200000 0.000000
0.700000 0.200000 0.000000
0.800000 0.200000 0.000000
0.900000 0.200000 0.000000
1.000000 0.200000 0.000000
1.100000 0.200000 0.000000
1.200000 0.200000 0.000000
1.300000 0.200000 0.000000
1.400000 0.200000 0.000000
1.500000 0.200000 0.000000
1.600000 0.200000 0.000000
1.700000 0.200000 0.000000
1.800000 0.200000 0.000000
1.900000 0.200000 0.000000
2.000000 0.200000 0.000000
2.100000 0.200000 0.000000
2.200000 0.200000 0.000000
2.300000 0.200000 0.000000
2.400000 0.200000 0.000000
2.500000 0.200000 0.000000
2.600000 0.200000 0.000000
2.700000 0.200000 0.000000
2.800000 0.200000 0.000000
2.900000 0.200000 0.000000
3.000000 0.200000 0.000000
3.100000 0.200000 0.000000
3.200000 0.200000 0.000000
3.300000 0.200000 0.000000
3.400000 0.200000 0.000000
3.500000 0.200000 0.000000
3.600000 0.200000 0.000000
3.700000 0.200000 0.000000
3.800000 0.200000 0.000000
3.900000 0.200000 0.000000
4.000000 0.200000 0.000000
0.000000 0.300000 0.000000
0.100000 0.300000 0.000000
0.200000 0.300000 0.000000
0.300000 0.300000 0.000000
0.400000 0.300000 0.000000
0.500000 0.300000 0.000000
0.600000 0.300000 0.000000
0.700000 0.300000 0.000000
0.800000 0.300000 0.000000
0.900000 0.300000 0.000000
1.000000 0.300000 0.000000
1.100000 0.300000 0.000000
1.200000 0.300000 0.000000
1.300000 0.300000 0.000000
1.400000 0.300000 0.000000
1.500000 0.300000 0.000000
1.600000 0.300000 0.000000
1.700000 0.300000 0.000000
1.800000 0.300000 0.000000
1.900000 0.300000 0.000000
2.000000 0.300000 0.000000
2.100000 0.300000 0.000000
2.200000 0.300000 0.000000
2.300000 0.300000 0.000000
2.400000 0.300000 0.000000
2.500000 0.300000 0.000000
2.600000 0.300000 0.000000
2.700000 0.300000 0.000000
2.800000 0.300000 0.000000
2.900000 0.300000 0.000000
3.000000 0.300000 0.000000
3.100000 0.300000 0.000000
3.200000 0.300000 0.000000
3.300000 0.300000 0.000000
3.400000 0.300000 0.000000
3.500000 0.300000 0.000000
3.600000 0.300000 0.000000
3.700000 0.300000 0.000000
3.800000 0.300000 0.000000
3.900000 0.300000 0.000000
4.000000 0.300000 0.000000
0.000000 0.400000 0.000000
0.100000 0.400000 0.000000
0.200000 0.400000 0.000000
0.300000 0.400000 0.000000
0.400000 0.400000 0.000000
0.500000 0.400000 0.000000
0.600000 0.400000 0.000000
0.700000 0.400000 0.000000
0.800000 0.400000 0.000000
0.900000 0.400000 0.000000
1.000000 0.400000 0.000000
1.100000 0.400000 0.000000
1.200000 0.400000 0.000000
1.300000 0.400000 0.000000
1.400000 0.400000 0.000000
1.500000 0.400000 0.000000
1.600000 0.400000 0.000000
1.700000 0.400000 0.000000
1.800000 0.400000 0.000000
1.900000 0.400000 0.000000
2.000000 0.400000 0.000000
2.100000 0.400000 0.000000
2.200000 0.400000 0.000000
2.300000 0.400000 0.000000
2.400000 0.400000 0.000000
2.500000 0.400000 0.000000
2.600000 0.400000 0.000000
2.700000 0.400000 0.000000
2.800000 0.400000 0.000000
2.900000 0.400000 0.000000
3.000000 0.400000 0.000000
3.100000 0.400000 0.000000
3.200000 0.400000 0.000000
3.300000 0.400000 0.000000
3.400000 0.400000 0.000000
3.500000 0.400000 0.000000
3.600000 0.400000 0.000000
3.700000 0.400000 0.000000
3.800000 0.400000 0.000000
3.900000 0.400000 0.000000
4.000000 0.400000 0.000000
0.000000 0.500000 0.000000
0.100000 0.500000 0.000000
0.200000 0.500000 0.000000
0.300000 0.500000 0.000000
0.400000 0.500000 0.000000
0.500000 0.500000 0.000000
0.600000 0.500000 0.000000
0.700000 0.500000 0.000000
0.800000 0.500000 0.000000
0.900000 0.500000 0.000000
1.000000 0.500000 0.000000
1.100000 0.500000 0.000000
1.200000 0.500000 0.000000
1.300000 0.500000 0.000000
1.400000 0.500000 0.000000
1.500000 0.500000 0.000000
1.600000 0.500000 0.000000
1.700000 0.500000 0.000000
1.800000 0.500000 0.000000
1.900000 0.500000 0.000000
2.000000 0.500000 0.000000
2.100000 0.500000 0.000000
2.200000 0.500000 0.000000
2.300000 0.500000 0.000000
2.400000 0.500000 0.000000
2.500000 0.500000 0.000000
2.600000 0.500000 0.000000
2.700000 0.500000 0.000000
2.800000 0.500000 0.000000
2.900000 0.500000 0.000000
3.000000 0.500000 0.000000
3.100000 0.500000 0.000000
3.200000 0.500000 0.000000
3.300000 0.500000 0.000000
3.400000 0.500000 0.000000
3.500000 0.500000 0.000000
3.600000 0.500000 0.000000
3.700000 0.500000 0.000000
3.800000 0.500000 0.000000
3.900000 0.500000 0.000000
4.000000 0.500000 0.000000
0.000000 0.600000 0.000000
0.100000 0.600000 0.000000
0.200000 0.600000 0.000000
0.300000 0.600000 0.000000
0.400000 0.600000 0.000000
0.500000 0.600000 0.000000
0.600000 0.600000 0.000000
0.700000 0.600000 0.000000
0.800000 0.600000 0.000000
0.900000 0.600000 0.000000
1.000000 0.600000 0.000000
1.100000 0.600000 0.000000
1.200000 0.600000 0.000000
1.300000 0.600000 0.000000
1.400000 0.600000 0.000000
1.500000 0.600000 0.000000
1.600000 0.600000 0.000000
1.700000 0.600000 0.000000
1.800000 0.600000 0.000000
1.900000 0.600000 0.000000
2.000000 0.600000 0.000000
2.100000 0.600000 0.000000
2.200000 0.600000 0.000000
2.300000 0.600000 0.000000
2.400000 0.600000 0.000000
2.500000 0.600000 0.000000
2.600000 0.600000 0.000000
2.700000 0.600000 0.000000
2.800000 0.600000 0.000000
2.900000 0.600000 0.000000
3.000000 0.600000 0.000000
3.100000 0.600000 0.000000
3.200000 0.600000 0.000000
3.300000 0.600000 0.000000
3.400000 0.600000 0.000000
3.500000 0.600000 0.000000
3.600000 0.600000 0.000000
3.700000 0.600000 0.000000
3.800000 0.600000 0.000000
3.900000 0.600000 0.000000
4.000000 0.600000 0.000000
0.000000 0.700000 0.000000
0.100000 0.700000 0.000000
0.200000 0.700000 0.000000
0.300000 0.700000 0.000000
0.400000 0.700000 0.000000
0.500000 0.700000 0.000000
0.600000 0.700000 0.000000
0.700000 0.700000 0.000000
0.800000 0.700000 0.000000
0.900000 0.700000 0.000000
1.000000 0.700000 0.000000
1.100000 0.700000 0.000000
1.200000 0.700000 0.000000
1.300000 0.700000 0.000000
1.400000 0.700000 0.000000
1.500000 0.700000 0.000000
1.600000 0.700000 0.000000
1.700000 0.700000 0.000000
1.800000 0.700000 0.000000
1.900000 0.700000 0.000000
2.000000 0.700000 0.000000
2.100000 0.700000 0.000000
2.200000 0.700000 0.000000
2.300000 0.700000 0.000000
2.400000 0.700000 0.000000
2.500000 0.700000 0.000000
2.600000 0.700000 0.000000
2.700000 0.700000 0.000000
2.800000 0.700000 0.000000
2.900000 0.700000 0.000000
3.000000 0.700000 0.000000
3.100000 0.700000 0.000000
3.200000 0.700000 0.000000
3.300000 0.700000 0.000000
3.400000 0.700000 0.000000
3.500000 0.700000 0.000000
3.600000 0.700000 0.000000
3.700000 0.700000 0.000000
3.800000 0.700000 0.000000
3.900000 0.700000 0.000000
4.000000 0.700000 0.000000
0.000000 0.800000 0.000000
0.100000 0.800000 0.000000
0.200000 0.800000 0.000000
0.300000 0.800000 0.000000
0.400000 0.800000 0.000000
0.500000 0.800000 0.000000
0.600000 0.800000 0.000000
0.700000 0.800000 0.000000
0.800000 0.800000 0.000000
0.900000 0.800000 0.000000
1.000000 0.800000 0.000000
1.100000 0.800000 0.000000
1.200000 0.800000 0.000000
1.300000 0.800000 0.000000
1.400000 0.800000 0.000000
1.500000 0.800000 0.000000
1.600000 0.800000 0.000000
1.700000 0.800000 0.000000
1.800000 0.800000 0.000000
1.900000 0.800000 0.000000
2.000000 0.800000 0.000000
2.100000 0.800000 0.000000
2.200000 0.800000 0.000000
2.300000 0.800000 0.000000
2.400000 0.800000 0.000000
2.500000 0.800000 0.000000
2.600000 0.800000 0.000000
2.700000 0.800000 0.000000
2.800000 0.800000 0.000000
2.900000 0.800000 0.000000
3.000000 0.800000 0.000000
3.100000 0.800000 0.000000
3.200000 0.800000 0.000000
3.300000 0.800000 0.000000
3.400000 0.800000 0.000000
3.500000 0.800000 0.000000
3.600000 0.800000 0.000000
[...]
CELL_DATA 16000
SCALARS pressure float 1
LOOKUP_TABLE default
26.1869
26.0041
25.6661
25.2152
24.6849
24.0995
23.4763
22.8273
22.161
21.483
20.7973
20.1064
19.4119
18.7147
18.0152
17.3137
16.6103
15.9054
15.1992
14.4921
13.7844
13.0765
12.3685
11.6606
10.9529
10.2454
9.5382
8.83117
8.12432
7.4176
6.71099
6.00445
5.29797
4.59152
3.88511
3.17871
2.47232
1.76593
1.05956
0.353183
26.2455
26.0354
25.6828
25.224
24.6895
24.1018
23.4773
22.8277
22.1609
21.4828
20.797
20.1062
19.4118
18.7146
18.0152
17.3137
16.6103
15.9054
15.1992
14.4921
13.7844
13.0764
12.3684
11.6605
10.9529
10.2454
9.53819
8.83117
8.12432
7.4176
6.71099
6.00445
5.29797
4.59153
3.88511
3.17871
2.47232
1.76594
1.05956
0.353183
26.3656
26.116
25.7365
25.2596
24.713
24.1173
23.4875
22.8342
22.1651
21.4854
20.7987
20.1073
19.4126
18.7154
18.0159
17.3144
16.611
15.9059
15.1996
14.4923
13.7845
13.0764
12.3683
11.6604
10.9527
10.2453
9.53809
8.83109
8.12426
7.41756
6.71096
6.00443
5.29796
4.59152
3.8851
3.1787
2.47232
1.76593
1.05956
0.353182
26.5214
26.2273
25.8145
25.3136
24.75
24.1424
23.5043
22.8453
22.1723
21.4901
20.8018
20.1095
19.4143
18.7169
18.0173
17.3157
16.6122
15.9069
15.2002
14.4927
13.7846
13.0763
12.3682
11.6602
10.9525
10.2451
9.53793
8.83096
8.12416
7.41748
6.7109
6.00439
5.29793
4.5915
3.88509
3.1787
2.47231
1.76593
1.05956
0.353182
26.6908
26.3532
25.9054
25.3781
24.7951
24.1735
23.5254
22.8594
22.1816
21.4961
20.8057
20.1123
19.4167
18.719
18.0194
17.3177
16.6139
15.9082
15.2012
14.4932
13.7848
13.0763
12.368
11.6599
10.9522
10.2448
9.53769
8.83077
8.12401
7.41738
6.71083
6.00434
5.29789
4.59148
3.88508
3.17869
2.47231
1.76593
1.05955
0.353181
26.8559
26.4794
25.9986
25.4454
24.8428
24.2068
23.5483
22.8748
22.1917
21.5027
20.8101
20.1155
19.4194
18.7216
18.0219
17.32
16.6159
15.9098
15.2023
14.4938
13.7849
13.0762
12.3677
11.6596
10.9519
10.2445
9.53742
8.83055
8.12384
7.41725
6.71074
6.00428
5.29785
4.59145
3.88506
3.17868
2.4723
1.76593
1.05955
0.353182
27.0028
26.5941
26.0847
25.5084
24.8881
24.2386
23.5702
22.8896
22.2015
21.5091
20.8144
20.1187
19.4221
18.7242
18.0245
17.3226
16.6181
15.9116
15.2034
14.4944
13.7851
13.076
12.3673
11.6592
10.9515
10.2442
9.53713
8.83032
8.12367
7.41712
6.71065
6.00421
5.29781
4.59142
3.88504
3.17867
2.47229
1.76592
1.05955
0.353182
27.1214
26.6879
26.1561
25.5613
24.9263
24.2657
23.589
22.9023
22.2099
21.5145
20.8181
20.1215
19.4245
18.7267
18.027
17.3249
16.6202
15.9132
15.2044
14.4949
13.7852
13.0758
12.367
11.6588
10.9511
10.2438
9.53687
8.83012
8.12352
7.41701
6.71057
6.00416
5.29777
4.59139
3.88502
3.17866
2.47229
1.76592
1.05955
0.353183
27.2043
26.7541
26.207
25.5992
24.9539
24.2854
23.6027
22.9116
22.216
21.5186
20.8208
20.1235
19.4264
18.7286
18.0289
17.3267
16.6218
15.9144
15.2053
14.4953
13.7853
13.0757
12.3668
11.6585
10.9509
10.2436
9.53668
8.82997
8.12341
7.41693
6.71051
6.00412
5.29774
4.59138
3.88501
3.17865
2.47228
1.76592
1.05955
0.353184
27.2469
26.7884
26.2334
25.619
24.9684
24.2958
23.61
22.9166
22.2193
21.5208
20.8224
20.1247
19.4275
18.7297
18.0301
17.3278
16.6228
15.9151
15.2058
14.4956
13.7854
13.0757
12.3667
11.6584
10.9507
10.2435
9.5366
8.82991
8.12336
7.4169
6.71048
6.0041
5.29773
4.59137
3.88501
3.17865
2.47228
1.76592
1.05955
0.353184
27.247
26.7884
26.2335
25.6191
24.9685
24.2959
23.6101
22.9167
22.2195
21.5209
20.8225
20.1249
19.4277
18.7299
18.0303
17.328
16.623
15.9153
15.2059
14.4957
13.7855
13.0758
12.3668
11.6585
10.9508
10.2436
9.53664
8.82994
8.12338
7.41691
6.7105
6.00411
5.29774
4.59137
3.88501
3.17865
2.47228
1.76592
1.05955
0.353184
27.2045
26.7544
26.2072
25.5994
24.9542
24.2857
23.603
22.912
22.2164
21.519
20.8213
20.1241
19.427
18.7292
18.0295
17.3273
16.6224
15.9149
15.2057
14.4957
13.7857
13.076
12.3671
11.6588
10.951
10.2438
9.5368
8.83007
8.12348
7.41699
6.71055
6.00415
5.29777
4.59139
3.88502
3.17866
2.47229
1.76592
1.05955
0.353184
27.1217
26.6883
26.1565
25.5617
24.9267
24.2662
23.5895
22.9029
22.2105
21.5152
20.8189
20.1223
19.4255
18.7276
18.0279
17.3258
16.6211
15.914
15.2052
14.4956
13.7858
13.0763
12.3675
11.6592
10.9514
10.2441
9.53706
8.83027
8.12363
7.4171
6.71063
6.00421
5.2978
4.59142
3.88504
3.17867
2.47229
1.76592
1.05955
0.353183
27.0033
26.5945
26.0852
25.509
24.8886
24.2392
23.5709
22.8904
22.2023
21.51
20.8155
20.1198
19.4233
18.7255
18.0258
17.3238
16.6193
15.9127
15.2044
14.4953
13.7859
13.0767
12.3679
11.6596
10.9519
10.2445
9.53738
8.83052
8.12382
7.41724
6.71073
6.00428
5.29785
4.59145
3.88506
3.17868
2.4723
1.76592
1.05955
0.353183
26.8565
26.48
25.9992
25.446
24.8435
24.2075
23.549
22.8757
22.1927
21.5038
20.8114
20.1169
19.4208
18.7231
18.0234
17.3215
16.6174
15.9112
15.2035
14.4949
13.7859
13.077
12.3683
11.6601
10.9523
10.2449
9.53772
8.83079
8.12403
7.41739
6.71084
6.00435
5.2979
4.59148
3.88508
3.17869
2.47231
1.76593
1.05955
0.353182
26.6915
26.3539
25.906
25.3787
24.7958
24.1743
23.5263
22.8604
22.1827
21.4973
20.8071
20.1138
19.4183
18.7207
18.0211
17.3193
16.6155
15.9097
15.2025
14.4944
13.7858
13.0772
12.3687
11.6606
10.9527
10.2453
9.53803
8.83104
8.12422
7.41753
6.71094
6.00442
5.29795
4.59151
3.8851
3.1787
2.47231
1.76593
1.05955
0.353181
26.5221
26.228
25.8152
25.3143
24.7508
24.1432
23.5052
22.8464
22.1735
21.4914
20.8032
20.111
19.416
18.7187
18.0191
17.3175
16.6138
15.9085
15.2017
14.494
13.7857
13.0773
12.369
11.6609
10.9531
10.2456
9.53828
8.83124
8.12437
7.41764
6.71102
6.00448
5.29799
4.59154
3.88511
3.17871
2.47232
1.76593
1.05955
0.353181
26.3663
26.1167
25.7372
25.2604
24.7138
24.1182
23.4884
22.8353
22.1663
21.4867
20.8002
20.1089
19.4143
18.7172
18.0177
17.3162
16.6127
15.9075
15.201
14.4936
13.7856
13.0774
12.3692
11.6611
10.9533
10.2458
9.53846
8.83138
8.12448
7.41772
6.71108
6.00451
5.29801
4.59155
3.88512
3.17871
2.47232
1.76593
1.05955
0.35318
26.2462
26.0361
25.6835
25.2248
24.6903
24.1026
23.4783
22.8287
22.1621
21.4841
20.7985
20.1078
19.4135
18.7164
18.0169
17.3154
16.612
15.907
15.2007
14.4934
13.7855
13.0774
12.3693
11.6612
10.9534
10.2459
9.53854
8.83144
8.12453
7.41776
6.7111
6.00453
5.29802
4.59156
3.88512
3.17871
2.47232
1.76593
1.05955
0.353179
26.1876
26.0048
25.6668
25.2159
24.6856
24.1003
23.4772
22.8284
22.1621
21.4842
20.7987
20.1079
19.4136
18.7164
18.017
17.3154
16.612
15.907
15.2007
14.4934
13.7856
13.0774
12.3693
11.6612
10.9534
10.2459
9.53854
8.83144
8.12452
7.41775
6.71109
6.00452
5.29801
4.59155
3.88512
3.17871
2.47231
1.76593
1.05955
0.353178
26.2455
26.0354
25.6828
25.224
24.6895
24.1018
23.4773
22.8277
22.1609
21.4828
20.797
20.1062
19.4118
18.7146
18.0152
17.3137
16.6103
15.9054
15.1992
14.4921
13.7844
13.0764
12.3684
11.6605
10.9529
10.2454
9.53819
8.83117
8.12432
7.4176
6.71099
6.00445
5.29797
4.59153
3.88511
3.17871
2.47232
1.76594
1.05956
0.353183
26.2963
26.0464
25.6769
25.2125
24.6773
24.091
23.4685
22.8208
22.1557
21.4789
20.7941
20.104
19.41
18.7132
18.014
17.3127
16.6095
15.9048
15.1987
14.4917
13.7842
13.0763
12.3684
11.6606
10.9529
10.2455
9.53825
8.83123
8.12437
7.41765
6.71103
6.00448
5.29799
4.59154
3.88512
3.17872
2.47232
1.76594
1.05956
0.353183
26.4165
26.1175
25.7181
25.236
24.6905
24.0981
23.4721
22.8224
22.1562
21.4788
20.7938
20.1036
19.4097
18.713
18.0139
17.3126
16.6095
15.9048
15.1987
14.4917
13.7841
13.0762
12.3683
11.6605
10.9528
10.2454
9.53822
8.83121
8.12436
7.41764
6.71102
6.00448
5.29799
4.59154
3.88512
3.17872
2.47233
1.76594
1.05956
0.353183
26.5783
26.2254
25.7897
25.2831
24.7212
24.118
23.4848
22.8303
22.161
21.4817
20.7955
20.1047
19.4105
18.7137
18.0146
17.3134
16.6102
15.9053
15.199
14.4919
13.7841
13.0761
12.3682
11.6603
10.9527
10.2453
9.53811
8.83112
8.12429
7.41759
6.71099
6.00446
5.29798
4.59154
3.88512
3.17871
2.47232
1.76594
1.05956
0.353183
26.756
26.3507
25.8773
25.3437
24.7626
24.1459
23.5033
22.8424
22.1688
21.4866
20.7987
20.1069
19.4122
18.7153
18.0161
17.3147
16.6114
15.9062
15.1997
14.4922
13.7842
13.0761
12.368
11.6601
10.9525
10.2451
9.53793
8.83098
8.12419
7.41751
6.71093
6.00442
5.29795
4.59152
3.88511
3.17871
2.47232
1.76594
1.05956
0.353183
26.9295
26.4776
25.9688
25.4087
24.8081
24.1773
23.5246
22.8566
22.178
21.4925
20.8026
20.1096
19.4145
18.7173
18.018
17.3166
16.613
15.9075
15.2005
14.4927
13.7844
13.076
12.3678
11.6598
10.9522
10.2448
9.53771
8.8308
8.12405
7.41741
6.71086
6.00437
5.29792
4.5915
3.88509
3.1787
2.47231
1.76593
1.05956
0.353183
27.0839
26.5933
26.0541
25.4704
24.852
24.208
23.5456
22.8707
22.1873
21.4986
20.8066
20.1125
19.4169
18.7195
18.0202
17.3186
16.6147
15.9088
15.2014
14.4931
13.7845
13.0759
12.3675
11.6595
10.9519
10.2445
9.53748
8.83062
8.12391
7.41731
6.71079
6.00432
5.29788
4.59147
3.88508
3.17869
2.47231
1.76593
1.05956
0.353184
27.2083
26.6881
26.125
25.5225
24.8894
24.2344
23.5639
22.8831
22.1955
21.5039
20.8101
20.1151
19.4191
18.7216
18.0222
17.3205
16.6164
15.9101
15.2023
14.4936
13.7846
13.0758
12.3673
11.6592
10.9516
10.2443
9.53728
8.83046
8.12379
7.41722
6.71072
6.00427
5.29785
4.59145
3.88506
3.17868
2.4723
1.76593
1.05955
0.353184
27.2952
26.755
26.1756
25.5599
24.9166
24.2536
23.5773
22.8922
22.2016
21.5079
20.8128
20.1171
19.4208
18.7233
18.0238
17.322
16.6177
15.9111
15.203
14.4939
13.7847
13.0757
12.3671
11.659
10.9514
10.2441
9.53713
8.83034
8.1237
7.41715
6.71068
6.00424
5.29783
4.59144
3.88505
3.17868
2.4723
1.76593
1.05955
0.353185
27.3398
26.7896
26.2019
25.5795
24.9308
24.2638
23.5844
22.897
22.2049
21.5101
20.8143
20.1183
19.4218
18.7242
18.0248
17.3229
16.6185
15.9118
15.2034
14.4942
13.7848
13.0757
12.3671
11.659
10.9513
10.244
9.53706
8.83029
8.12366
7.41713
6.71066
6.00423
5.29782
4.59143
3.88505
3.17867
2.4723
1.76592
1.05955
0.353185
27.3399
26.7897
26.202
25.5795
24.9309
24.2639
23.5845
22.8972
22.205
21.5103
20.8145
20.1184
19.422
18.7244
18.025
17.3231
16.6187
15.9119
15.2035
14.4943
13.7849
13.0758
12.3671
11.659
10.9514
10.2441
9.5371
8.83032
8.12369
7.41715
6.71067
6.00424
5.29783
4.59144
3.88505
3.17868
2.4723
1.76592
1.05955
0.353184
27.2955
26.7553
26.1758
25.5601
24.9168
24.2539
23.5776
22.8925
22.2019
21.5083
20.8133
20.1176
19.4213
18.7238
18.0244
17.3225
16.6182
15.9116
15.2034
14.4943
13.785
13.076
12.3674
11.6592
10.9516
10.2443
9.53724
8.83043
8.12377
7.41721
6.71072
6.00427
5.29785
4.59145
3.88506
3.17868
2.4723
1.76593
1.05955
0.353184
27.2087
26.6884
26.1254
25.5228
24.8898
24.2348
23.5644
22.8836
22.1961
21.5046
20.8109
20.1159
19.4199
18.7225
18.0231
17.3213
16.6172
15.9109
15.203
14.4942
13.7851
13.0762
12.3677
11.6596
10.9519
10.2445
9.53746
8.8306
8.1239
7.41731
6.71079
6.00432
5.29789
4.59148
3.88508
3.17869
2.47231
1.76593
1.05955
0.353183
27.0844
26.5937
26.0546
25.4709
24.8525
24.2085
23.5463
22.8714
22.1881
21.4995
20.8075
20.1135
19.418
18.7207
18.0213
17.3197
16.6158
15.9099
15.2024
14.494
13.7852
13.0765
12.368
11.66
10.9522
10.2448
9.53772
8.83081
8.12406
7.41743
6.71087
6.00438
5.29793
4.5915
3.8851
3.1787
2.47231
1.76593
1.05955
0.353182
26.9301
26.4782
25.9694
25.4093
24.8087
24.178
23.5253
22.8574
22.179
21.4936
20.8037
20.1109
19.4158
18.7187
18.0194
17.3179
16.6143
15.9087
15.2017
14.4937
13.7852
13.0767
12.3684
11.6604
10.9526
10.2452
9.538
8.83104
8.12423
7.41755
6.71097
6.00445
5.29797
4.59153
3.88511
3.17871
2.47232
1.76593
1.05955
0.353181
26.7567
26.3514
25.878
25.3444
24.7633
24.1467
23.5042
22.8433
22.1698
21.4878
20.7999
20.1083
19.4137
18.7168
18.0176
17.3163
16.6129
15.9076
15.201
14.4934
13.7852
13.0769
12.3687
11.6607
10.953
10.2455
9.53826
8.83124
8.12439
7.41767
6.71105
6.0045
5.29801
4.59156
3.88513
3.17872
2.47232
1.76594
1.05955
0.35318
26.579
26.2261
25.7904
25.2839
24.722
24.1188
23.4857
22.8313
22.1621
21.4829
20.7969
20.1062
19.4121
18.7154
18.0163
17.315
16.6118
15.9068
15.2004
14.4931
13.7852
13.0771
12.369
11.661
10.9532
10.2457
9.53846
8.8314
8.12451
7.41775
6.71111
6.00454
5.29804
4.59157
3.88514
3.17873
2.47233
1.76594
1.05955
0.35318
26.4172
26.1183
25.7189
25.2368
24.6913
24.099
23.473
22.8234
22.1573
21.4801
20.7952
20.1051
19.4113
18.7147
18.0156
17.3143
16.6112
15.9063
15.2001
14.493
13.7852
13.0772
12.3691
11.6612
10.9534
10.2459
9.53858
8.83149
8.12457
7.4178
6.71114
6.00456
5.29805
4.59158
3.88514
3.17873
2.47233
1.76594
1.05955
0.353179
26.2971
26.0472
25.6776
25.2132
24.6781
24.0919
23.4694
22.8218
22.1568
21.4801
20.7955
20.1055
19.4117
18.7149
18.0157
17.3144
16.6112
15.9063
15.2002
14.493
13.7853
13.0773
12.3692
11.6612
10.9535
10.2459
9.5386
8.8315
8.12458
7.4178
6.71113
6.00456
5.29804
4.59157
3.88513
3.17872
2.47232
1.76593
1.05955
0.353179
26.2462
26.0361
25.6835
25.2247
24.6902
24.1026
23.4782
22.8287
22.162
21.484
20.7984
20.1077
19.4134
18.7163
18.0169
17.3154
16.612
15.907
15.2006
14.4933
13.7855
13.0774
12.3692
11.6612
10.9534
10.2458
9.53852
8.83142
8.12451
7.41774
6.71109
6.00452
5.29801
4.59155
3.88512
3.17871
2.47231
1.76592
1.05955
0.353176
26.3656
26.116
25.7365
25.2596
24.713
24.1173
23.4875
22.8342
22.1651
21.4854
20.7987
20.1073
19.4126
18.7154
18.0159
17.3144
16.611
15.9059
15.1996
14.4923
13.7845
13.0764
12.3683
11.6604
10.9527
10.2453
9.53809
8.83109
8.12426
7.41756
6.71096
6.00443
5.29796
4.59152
3.8851
3.1787
2.47232
1.76593
1.05956
0.353182
26.4165
26.1175
25.7181
25.236
24.6905
24.0981
23.4721
22.8224
22.1562
21.4788
20.7938
20.1036
19.4097
18.713
18.0139
17.3126
16.6095
15.9048
15.1987
14.4917
13.7841
13.0762
12.3683
11.6605
10.9528
10.2454
9.53822
8.83121
8.12436
7.41764
6.71102
6.00448
5.29799
4.59154
3.88512
3.17872
2.47233
1.76594
1.05956
0.353183
26.5373
26.1838
25.7517
25.2514
24.6961
24.0989
23.4706
22.82
22.1537
21.4765
20.7918
20.102
19.4084
18.7119
18.0131
17.312
16.609
15.9043
15.1984
14.4914
13.7839
13.0761
12.3682
11.6604
10.9528
10.2454
9.53824
8.83123
8.12439
7.41767
6.71105
6.0045
5.29801
4.59156
3.88513
3.17873
2.47233
1.76595
1.05956
0.353184
26.7027
26.2903
25.8192
25.2934
24.7219
24.1144
23.4797
22.8251
22.1564
21.4777
20.7922
20.1021
19.4085
18.7121
18.0133
17.3123
16.6093
15.9045
15.1985
14.4914
13.7838
13.0759
12.368
11.6603
10.9527
10.2453
9.53816
8.83118
8.12435
7.41764
6.71103
6.00449
5.29801
4.59156
3.88513
3.17873
2.47233
1.76595
1.05956
0.353185
26.8865
26.4166
25.905
25.3511
24.7602
24.1395
23.4958
22.8352
22.1625
21.4813
20.7944
20.1035
19.4096
18.7131
18.0144
17.3134
16.6102
15.9053
15.1989
14.4916
13.7838
13.0758
12.3678
11.66
10.9525
10.2451
9.53801
8.83107
8.12427
7.41759
6.71099
6.00447
5.29799
4.59155
3.88513
3.17873
2.47233
1.76595
1.05957
0.353186
27.0669
26.5456
25.9962
25.4147
24.8039
24.169
23.5154
22.848
22.1706
21.4863
20.7975
20.1056
19.4113
18.7149
18.0161
17.315
16.6116
15.9063
15.1996
14.4919
13.7838
13.0756
12.3676
11.6598
10.9522
10.2449
9.53782
8.83092
8.12416
7.4175
6.71094
6.00443
5.29796
4.59153
3.88512
3.17872
2.47233
1.76595
1.05957
0.353187
27.2277
26.6637
26.0817
25.4757
24.8467
24.1985
23.5354
22.8611
22.179
21.4916
20.8009
20.108
19.4134
18.7169
18.0181
17.3169
16.6133
15.9076
15.2003
14.4922
13.7838
13.0754
12.3673
11.6594
10.9519
10.2447
9.53761
8.83076
8.12404
7.41742
6.71088
6.00439
5.29794
4.59151
3.88511
3.17871
2.47233
1.76595
1.05957
0.353188
27.3575
26.7607
26.1531
25.5274
24.8835
24.2242
23.5529
22.8728
22.1866
21.4965
20.804
20.1103
19.4155
18.7189
18.0201
17.3188
16.6149
15.9088
15.201
14.4925
13.7838
13.0752
12.367
11.6592
10.9516
10.2444
9.53743
8.83061
8.12393
7.41734
6.71082
6.00435
5.29791
4.5915
3.8851
3.17871
2.47232
1.76594
1.05957
0.353189
27.4481
26.8293
26.2042
25.5647
24.9102
24.243
23.5659
22.8815
22.1923
21.5001
20.8064
20.112
19.4171
18.7205
18.0218
17.3203
16.6162
15.9097
15.2016
14.4927
13.7838
13.0751
12.3668
11.6589
10.9514
10.2443
9.53729
8.83051
8.12385
7.41728
6.71078
6.00432
5.29789
4.59149
3.88509
3.1787
2.47232
1.76594
1.05957
0.35319
27.4946
26.8647
26.2307
25.5842
24.9244
24.253
23.5728
22.8862
22.1954
21.5021
20.8077
20.1131
19.418
18.7215
18.0227
17.3213
16.617
15.9103
15.2019
14.4929
13.7838
13.075
12.3667
11.6589
10.9514
10.2442
9.53724
8.83046
8.12382
7.41726
6.71077
6.00431
5.29789
4.59148
3.88509
3.1787
2.47232
1.76594
1.05957
0.35319
27.4947
26.8648
26.2308
25.5843
24.9244
24.2531
23.5729
22.8863
22.1955
21.5022
20.8079
20.1132
19.4182
18.7217
18.0229
17.3214
16.6172
15.9104
15.2021
14.493
13.7839
13.0751
12.3668
11.6589
10.9514
10.2442
9.53727
8.83049
8.12384
7.41728
6.71078
6.00432
5.2979
4.59149
3.88509
3.1787
2.47232
1.76594
1.05957
0.353189
27.4483
26.8295
26.2044
25.5649
24.9105
24.2433
23.5662
22.8818
22.1926
21.5005
20.8068
20.1125
19.4176
18.721
18.0223
17.3209
16.6167
15.9102
15.202
14.4931
13.7841
13.0754
12.367
11.6591
10.9516
10.2444
9.5374
8.83059
8.12392
7.41734
6.71082
6.00435
5.29792
4.5915
3.8851
3.17871
2.47233
1.76595
1.05956
0.353188
27.3579
26.7611
26.1535
25.5277
24.8839
24.2246
23.5534
22.8733
22.1872
21.4971
20.8047
20.1111
19.4163
18.7198
18.021
17.3196
16.6157
15.9095
15.2017
14.4931
13.7843
13.0757
12.3674
11.6595
10.9519
10.2446
9.53761
8.83075
8.12404
7.41742
6.71088
6.0044
5.29795
4.59152
3.88511
3.17872
2.47233
1.76595
1.05956
0.353186
27.2283
26.6642
26.0822
25.4762
24.8472
24.1991
23.536
22.8618
22.1798
21.4925
20.8018
20.109
19.4145
18.718
18.0193
17.318
16.6144
15.9086
15.2012
14.493
13.7845
13.076
12.3678
11.6599
10.9523
10.2449
9.53785
8.83095
8.12418
7.41753
6.71096
6.00445
5.29798
4.59154
3.88513
3.17873
2.47233
1.76595
1.05956
0.353184
27.0675
26.5462
25.9968
25.4153
24.8045
24.1697
23.5162
22.8488
22.1715
21.4873
20.7986
20.1068
19.4126
18.7162
18.0175
17.3163
16.6129
15.9075
15.2007
14.4929
13.7846
13.0764
12.3682
11.6603
10.9526
10.2453
9.53811
8.83114
8.12433
7.41764
6.71104
6.0045
5.29802
4.59157
3.88514
3.17873
2.47234
1.76595
1.05956
0.353182
26.8872
26.4173
25.9057
25.3518
24.7609
24.1402
23.4966
22.8361
22.1635
21.4825
20.7956
20.1048
19.411
18.7147
18.0159
17.3149
16.6117
15.9066
15.2001
14.4927
13.7848
13.0766
12.3686
11.6607
10.953
10.2455
9.53834
8.83132
8.12447
7.41774
6.71111
6.00455
5.29805
4.59159
3.88515
3.17874
2.47234
1.76595
1.05956
0.35318
26.7035
26.291
25.8199
25.2942
24.7227
24.1152
23.4806
22.8261
22.1575
21.4789
20.7936
20.1035
19.41
18.7137
18.0149
17.3139
16.6108
15.906
15.1998
14.4926
13.7849
13.0769
12.3688
11.6609
10.9532
10.2458
9.53851
8.83145
8.12456
7.4178
6.71115
6.00458
5.29806
4.59159
3.88516
3.17874
2.47234
1.76595
1.05956
0.353179
26.538
26.1845
25.7524
25.2521
24.6969
24.0997
23.4715
22.8211
22.1549
21.4778
20.7932
20.1035
19.41
18.7136
18.0148
17.3137
16.6106
15.9059
15.1998
14.4927
13.785
13.077
12.369
11.6611
10.9534
10.2459
9.53859
8.83151
8.12459
7.41782
6.71116
6.00458
5.29806
4.59159
3.88515
3.17873
2.47233
1.76594
1.05956
0.353178
26.4172
26.1183
25.7189
25.2368
24.6912
24.0989
23.473
22.8234
22.1573
21.48
20.7952
20.1051
19.4113
18.7147
18.0156
17.3144
16.6112
15.9063
15.2001
14.493
13.7852
13.0772
12.3691
11.6611
10.9534
10.2459
9.53856
8.83147
8.12456
7.41779
6.71113
6.00455
5.29804
4.59157
3.88513
3.17872
2.47232
1.76593
1.05955
0.353177
26.3663
26.1167
25.7372
25.2603
24.7137
24.1181
23.4883
22.8352
22.1662
21.4866
20.8001
20.1088
19.4142
18.7171
18.0176
17.3161
16.6126
15.9075
15.201
14.4935
13.7855
13.0773
12.3691
11.6611
10.9532
10.2457
9.53841
8.83133
8.12444
7.41769
6.71105
6.00449
5.29799
4.59153
3.88511
3.1787
2.47231
1.76592
1.05954
0.353173
26.5214
26.2273
25.8145
25.3136
24.75
24.1424
23.5043
22.8453
22.1723
21.4901
20.8018
20.1095
19.4143
18.7169
18.0173
17.3157
16.6122
15.9069
15.2002
14.4927
13.7846
13.0763
12.3682
11.6602
10.9525
10.2451
9.53793
8.83096
8.12416
7.41748
6.7109
6.00439
5.29793
4.5915
3.88509
3.1787
2.47231
1.76593
1.05956
0.353182
26.5783
26.2254
25.7897
25.2831
24.7212
24.118
23.4848
22.8303
22.161
21.4817
20.7955
20.1047
19.4105
18.7137
18.0146
17.3134
16.6102
15.9053
15.199
14.4919
13.7841
13.0761
12.3682
11.6603
10.9527
10.2453
9.53811
8.83112
8.12429
7.41759
6.71099
6.00446
5.29798
4.59154
3.88512
3.17871
2.47232
1.76594
1.05956
0.353183
26.7027
26.2903
25.8192
25.2934
24.7219
24.1144
23.4797
22.8251
22.1564
21.4777
20.7922
20.1021
19.4085
18.7121
18.0133
17.3123
16.6093
15.9045
15.1985
14.4914
13.7838
13.0759
12.368
11.6603
10.9527
10.2453
9.53816
8.83118
8.12435
7.41764
6.71103
6.00449
5.29801
4.59156
3.88513