# vtk DataFile Version 2.0
I need something to put here
ASCII

DATASET STRUCTURED_GRID
DIMENSIONS 41 21 21
POINTS 18081 float
0.000000 0.000000 0.000000
0.100000 0.000000 0.000000
0.200000 0.000000 0.000000
0.300000 0.000000 0.000000
0.400000 0.000000 0.000000
0.500000 0.000000 0.000000
0.600000 0.000000 0.000000
0.700000 0.000000 0.000000
0.800000 0.000000 0.000000
0.900000 0.000000 0.000000
1.000000 0.000000 0.000000
1.100000 0.000000 0.000000
1.200000 0.000000 0.000000
1.300000 0.000000 0.000000
1.400000 0.000000 0.000000
1.500000 0.000000 0.000000
1.600000 0.000000 0.000000
1.700000 0.000000 0.000000
1.800000 0.000000 0.000000
1.900000 0.000000 0.000000
2.000000 0.000000 0.000000
2.100000 0.000000 0.000000
2.200000 0.000000 0.000000
2.300000 0.000000 0.000000
2.400000 0.000000 0.000000
2.500000 0.000000 0.000000
2.600000 0.000000 0.000000
2.700000 0.000000 0.000000
2.800000 0.000000 0.000000
2.900000 0.000000 0.000000
3.000000 0.000000 0.000000
3.100000 0.000000 0.000000
3.200000 0.000000 0.000000
3.300000 0.000000 0.000000
3.400000 0.000000 0.000000
3.500000 0.000000 0.000000
3.600000 0.000000 0.000000
3.700000 0.000000 0.000000
3.800000 0.000000 0.000000
3.900000 0.000000 0.000000
4.000000 0.000000 0.000000
0.000000 0.100000 0.000000
0.100000 0.100000 0.000000
0.200000 0.100000 0.000000
0.300000 0.100000 0.000000
0.400000 0.100000 0.000000
0.500000 0.100000 0.000000
0.600000 0.100000 0.000000
0.700000 0.100000 0.000000
0.800000 0.100000 0.000000
0.900000 0.100000 0.000000
1.000000 0.100000 0.000000
1.100000 0.100000 0.000000
1.200000 0.100000 0.000000
1.300000 0.100000 0.000000
1.400000 0.100000 0.000000
1.500000 0.100000 0.000000
1.600000 0.100000 0.000000
1.700000 0.100000 0.000000
1.800000 0.100000 0.000000
1.900000 0.100000 0.000000
2.000000 0.100000 0.000000
2.100000 0.100000 0.000000
2.200000 0.100000 0.000000
2.300000 0.100000 0.000000
2.400000 0.100000 0.000000
2.500000 0.100000 0.000000
2.600000 0.100000 0.000000
2.700000 0.100000 0.000000
2.800000 0.100000 0.000000
2.900000 0.100000 0.000000
3.000000 0.100000 0.000000
3.100000 0.100000 0.000000
3.200000 0.100000 0.000000
3.300000 0.100000 0.000000
3.400000 0.100000 0.000000
3.500000 0.100000 0.000000
3.600000 0.100000 0.000000
3.700000 0.100000 0.000000
3.800000 0.100000 0.000000
3.900000 0.100000 0.000000
4.000000 0.100000 0.000000
0.000000 0.200000 0.000000
0.100000 0.200000 0.000000
0.200000 0.200000 0.000000
0.300000 0.200000 0.000000
0.400000 0.200000 0.000000
0.500000 0.200000 0.000000
0.600000 0.200000 0.000000
0.700000 0.200000 0.000000
0.800000 0.200000 0.000000
0.900000 0.200000 0.000000
1.000000 0.200000 0.000000
1.100000 0.200000 0.000000
1.200000 0.200000 0.000000
1.300000 0.200000 0.000000
1.400000 0.200000 0.000000
1.500000 0.200000 0.000000
1.600000 0.200000 0.000000
1.700000 0.200000 0.000000
1.800000 0.200000 0.000000
1.900000 0.200000 0.000000
2.000000 0.200000 0.000000
2.100000 0.200000 0.000000
2.200000 0.200000 0.000000
2.300000 0.200000 0.000000
2.400000 0.200000 0.000000
2.500000 0.200000 0.000000
2.600000 0.200000 0.000000
2.700000 0.200000 0.000000
2.800000 0.200000 0.000000
2.900000 0.200000 0.000000
3.000000 0.200000 0.000000
3.100000 0.200000 0.000000
3.200000 0.200000 0.000000
3.300000 0.200000 0.000000
3.400000 0.200000 0.000000
3.500000 0.200000 0.000000
3.600000 0.200000 0.000000
3.700000 0.200000 0.000000
3.800000 0.200000 0.000000
3.900000 0.200000 0.000000
4.000000 0.200000 0.000000
0.000000 0.300000 0.000000
0.100000 0.300000 0.000000
0.200000 0.300000 0.000000
0.300000 0.300000 0.000000
0.400000 0.300000 0.000000
0.500000 0.300000 0.000000
0.600000 0.300000 0.000000
0.700000 0.300000 0.000000
0.800000 0.300000 0.000000
0.900000 0.300000 0.000000
1.000000 0.300000 0.000000
1.100000 0.300000 0.000000
1.200000 0.300000 0.000000
1.300000 0.300000 0.000000
1.400000 0.300000 0.000000
1.500000 0.300000 0.000000
1.600000 0.300000 0.000000
1.700000 0.300000 0.000000
1.800000 0.300000 0.000000
1.900000 0.300000 0.000000
2.000000 0.300000 0.000000
2.100000 0.300000 0.000000
2.200000 0.300000 0.000000
2.300000 0.300000 0.000000
2.400000 0.300000 0.000000
2.500000 0.300000 0.000000
2.600000 0.300000 0.000000
2.700000 0.300000 0.000000
2.800000 0.300000 0.000000
2.900000 0.300000 0.000000
3.000000 0.300000 0.000000
3.100000 0.300000 0.000000
3.200000 0.300000 0.000000
3.300000 0.300000 0.000000
3.400000 0.300000 0.000000
3.500000 0.300000 0.000000
3.600000 0.300000 0.000000
3.700000 0.300000 0.000000
3.800000 0.300000 0.000000
3.900000 0.300000 0.000000
4.000000 0.300000 0.000000
0.000000 0.400000 0.000000
0.100000 0.400000 0.000000
0.200000 0.400000 0.000000
0.300000 0.400000 0.000000
0.400000 0.400000 0.000000
0.500000 0.400000 0.000000
0.600000 0.400000 0.000000
0.700000 0.400000 0.000000
0.800000 0.400000 0.000000
0.900000 0.400000 0.000000
1.000000 0.400000 0.000000
1.100000 0.400000 0.000000
1.200000 0.400000 0.000000
1.300000 0.400000 0.000000
1.400000 0.400000 0.000000
1.500000 0.400000 0.000000
1.600000 0.400000 0.000000
1.700000 0.400000 0.000000
1.800000 0.400000 0.000000
1.900000 0.400000 0.000000
2.000000 0.400000 0.000000
2.100000 0.400000 0.000000
2.200000 0.400000 0.000000
2.300000 0.400000 0.000000
2.400000 0.400000 0.000000
2.500000 0.400000 0.000000
2.600000 0.400000 0.000000
2.700000 0.400000 0.000000
2.800000 0.400000 0.000000
2.900000 0.400000 0.000000
3.000000 0.400000 0.000000
3.100000 0.400000 0.000000
3.200000 0.400000 0.000000
3.300000 0.400000 0.000000
3.400000 0.400000 0.000000
3.500000 0.400000 0.000000
3.600000 0.400000 0.000000
3.700000 0.400000 0.000000
3.800000 0.400000 0.000000
3.900000 0.400000 0.000000
4.000000 0.400000 0.000000
0.000000 0.500000 0.000000
0.100000 0.500000 0.000000
0.200000 0.500000 0.000000
0.300000 0.500000 0.000000
0.400000 0.500000 0.000000
0.500000 0.500000 0.000000
0.600000 0.500000 0.000000
0.700000 0.500000 0.000000
0.800000 0.500000 0.000000
0.900000 0.500000 0.000000
1.000000 0.500000 0.000000
1.100000 0.500000 0.000000
1.200000 0.500000 0.000000
1.300000 0.500000 0.000000
1.400000 0.500000 0.000000
1.500000 0.500000 0.000000
1.600000 0.500000 0.000000
1.700000 0.500000 0.000000
1.800000 0.500000 0.000000
1.900000 0.500000 0.000000
2.000000 0.500000 0.000000
2.100000 0.500000 0.000000
2.200000 0.500000 0.000000
2.300000 0.500000 0.000000
2.400000 0.500000 0.000000
2.500000 0.500000 0.000000
2.600000 0.500000 0.000000
2.700000 0.500000 0.000000
2.800000 0.500000 0.000000
2.900000 0.500000 0.000000
3.000000 0.500000 0.000000
3.100000 0.500000 0.000000
3.200000 0.500000 0.000000
3.300000 0.500000 0.000000
3.400000 0.500000 0.000000
3.500000 0.500000 0.000000
3.600000 0.500000 0.000000
3.700000 0.500000 0.000000
3.800000 0.500000 0.000000
3.900000 0.500000 0.000000
4.000000 0.500000 0.000000
0.000000 0.600000 0.000000
0.100000 0.600000 0.000000
0.200000 0.600000 0.000000
0.300000 0.600000 0.000000
0.400000 0.600000 0.000000
0.500000 0.600000 0.000000
0.600000 0.600000 0.000000
0.700000 0.600000 0.000000
0.800000 0.600000 0.000000
0.900000 0.600000 0.000000
1.000000 0.600000 0.000000
1.100000 0.600000 0.000000
1.200000 0.600000 0.000000
1.300000 0.600000 0.000000
1.400000 0.600000 0.000000
1.500000 0.600000 0.000000
1.600000 0.600000 0.000000
1.700000 0.600000 0.000000
1.800000 0.600000 0.000000
1.900000 0.600000 0.000000
2.000000 0.600000 0.000000
2.100000 0.600000 0.000000
2.200000 0.600000 0.000000
2.300000 0.600000 0.000000
2.400000 0.600000 0.000000
2.500000 0.600000 0.000000
2.600000 0.600000 0.000000
2.700000 0.600000 0.000000
2.800000 0.600000 0.000000
2.900000 0.600000 0.000000
3.000000 0.600000 0.000000
3.100000 0.600000 0.000000
3.200000 0.600000 0.000000
3.300000 0.600000 0.000000
3.400000 0.600000 0.000000
3.500000 0.600000 0.000000
3.600000 0.600000 0.000000
3.700000 0.600000 0.000000
3.800000 0.600000 0.000000
3.900000 0.600000 0.000000
4.000000 0.600000 0.000000
0.000000 0.700000 0.000000
0.100000 0.700000 0.000000
0.200000 0.700000 0.000000
0.300000 0.700000 0.000000
0.400000 0.700000 0.000000
0.500000 0.700000 0.000000
0.600000 0.700000 0.000000
0.700000 0.700000 0.000000
0.800000 0.700000 0.000000
0.900000 0.700000 0.000000
1.000000 0.700000 0.000000
1.100000 0.700000 0.000000
1.200000 0.700000 0.000000
1.300000 0.700000 0.000000
1.400000 0.700000 0.000000
1.500000 0.700000 0.000000
1.600000 0.700000 0.000000
1.700000 0.700000 0.000000
1.800000 0.700000 0.000000
1.900000 0.700000 0.000000
2.000000 0.700000 0.000000
2.100000 0.700000 0.000000
2.200000 0.700000 0.000000
2.300000 0.700000 0.000000
2.400000 0.700000 0.000000
2.500000 0.700000 0.000000
2.600000 0.700000 0.000000
2.700000 0.700000 0.000000
2.800000 0.700000 0.000000
2.900000 0.700000 0.000000
3.000000 0.700000 0.000000
3.100000 0.700000 0.000000
3.200000 0.700000 0.000000
3.300000 0.700000 0.000000
3.400000 0.700000 0.000000
3.500000 0.700000 0.000000
3.600000 0.700000 0.000000
3.700000 0.700000 0.000000
3.800000 0.700000 0.000000
3.900000 0.700000 0.000000
4.000000 0.700000 0.000000
0.000000 0.800000 0.000000
0.100000 0.800000 0.000000
0.200000 0.800000 0.000000
0.300000 0.800000 0.000000
0.400000 0.800000 0.000000
0.500000 0.800000 0.000000
0.600000 0.800000 0.000000
0.700000 0.800000 0.000000
0.800000 0.800000 0.000000
0.900000 0.800000 0.000000
1.000000 0.800000 0.000000
1.100000 0.800000 0.000000
1.200000 0.800000 0.000000
1.300000 0.800000 0.000000
1.400000 0.800000 0.000000
1.500000 0.800000 0.000000
1.600000 0.800000 0.000000
1.700000 0.800000 0.000000
1.800000 0.800000 0.000000
1.900000 0.800000 0.000000
2.000000 0.800000 0.000000
2.100000 0.800000 0.000000
2.200000 0.800000 0.000000
2.300000 0.800000 0.000000
2.400000 0.800000 0.000000
2.500000 0.800000 0.000000
2.600000 0.800000 0.000000
2.700000 0.800000 0.000000
2.800000 0.800000 0.000000
2.900000 0.800000 0.000000
3.000000 0.800000 0.000000
3.100000 0.800000 0.000000
3.200000 0.800000 0.000000
3.300000 0.800000 0.000000
3.400000 0.800000 0.000000
3.500000 0.800000 0.000000
3.600000 0.800000 0.000000
[...]
CELL_DATA 16000
SCALARS pressure float 1
LOOKUP_TABLE default
26.2112
26.0285
25.6904
25.2393
24.7084
24.122
23.4973
22.8461
22.1768
21.4952
20.8052
20.1095
19.4101
18.7082
18.0047
17.3001
16.5949
15.8893
15.1836
14.4778
13.7719
13.066
12.3601
11.654
10.9479
10.2418
9.53561
8.82937
8.12309
7.41679
6.71047
6.00413
5.29778
4.59142
3.88505
3.17868
2.47231
1.76594
1.05957
0.353191
26.2697
26.0598
25.7071
25.2481
24.713
24.1243
23.4983
22.8465
22.1768
21.4951
20.805
20.1093
19.41
18.7081
18.0045
17.3
16.5948
15.8893
15.1836
14.4778
13.7719
13.066
12.36
11.654
10.9479
10.2418
9.5356
8.82937
8.12309
7.41679
6.71046
6.00413
5.29777
4.59142
3.88505
3.17868
2.47231
1.76594
1.05957
0.353191
26.3898
26.1404
25.7609
25.2839
24.7367
24.1401
23.5087
22.8533
22.1813
21.498
20.8069
20.1105
19.4107
18.7085
18.0048
17.3001
16.5949
15.8893
15.1836
14.4778
13.7719
13.066
12.3601
11.654
10.948
10.2418
9.53562
8.82938
8.1231
7.41679
6.71047
6.00413
5.29778
4.59142
3.88505
3.17868
2.47231
1.76594
1.05957
0.353191
26.5458
26.2519
25.8391
25.3381
24.7741
24.1656
23.5261
22.8651
22.1892
21.5032
20.8103
20.1128
19.4122
18.7095
18.0054
17.3004
16.595
15.8893
15.1836
14.4778
13.7719
13.0661
12.3601
11.6541
10.948
10.2419
9.53565
8.8294
8.12312
7.41681
6.71048
6.00414
5.29778
4.59142
3.88506
3.17869
2.47232
1.76594
1.05957
0.353192
26.7154
26.378
25.9303
25.403
24.8196
24.1973
23.548
22.88
22.1993
21.51
20.8149
20.1159
19.4142
18.7108
18.0062
17.3009
16.5952
15.8894
15.1836
14.4778
13.772
13.0661
12.3602
11.6542
10.9481
10.2419
9.5357
8.82944
8.12315
7.41683
6.71049
6.00415
5.29779
4.59143
3.88506
3.17869
2.47232
1.76594
1.05957
0.353192
26.8808
26.5046
26.0239
25.4708
24.868
24.2313
23.5717
22.8964
22.2105
21.5176
20.82
20.1193
19.4165
18.7123
18.0071
17.3014
16.5955
15.8895
15.1836
14.4778
13.772
13.0662
12.3603
11.6543
10.9482
10.242
9.53576
8.82949
8.12318
7.41686
6.71051
6.00416
5.2978
4.59143
3.88506
3.17869
2.47232
1.76594
1.05957
0.353192
27.0281
26.6196
26.1105
25.5344
24.9138
24.264
23.5946
22.9123
22.2214
21.525
20.825
20.1227
19.4188
18.7138
18.008
17.3019
16.5957
15.8896
15.1836
14.4778
13.7721
13.0663
12.3604
11.6544
10.9483
10.2421
9.53582
8.82954
8.12322
7.41688
6.71053
6.00417
5.29781
4.59144
3.88507
3.17869
2.47232
1.76594
1.05957
0.353191
27.1471
26.7138
26.1823
25.5877
24.9527
24.2918
23.6142
22.926
22.2309
21.5315
20.8294
20.1257
19.4208
18.7151
18.0089
17.3024
16.5959
15.8896
15.1837
14.4779
13.7721
13.0664
12.3605
11.6545
10.9483
10.2421
9.53588
8.82958
8.12326
7.41691
6.71055
6.00419
5.29782
4.59144
3.88507
3.1787
2.47232
1.76595
1.05957
0.353191
27.2302
26.7803
26.2334
25.6259
24.9807
24.312
23.6286
22.936
22.2378
21.5362
20.8327
20.1279
19.4223
18.7161
18.0095
17.3027
16.596
15.8897
15.1837
14.4779
13.7722
13.0664
12.3605
11.6545
10.9484
10.2422
9.53593
8.82962
8.12328
7.41693
6.71057
6.0042
5.29782
4.59145
3.88507
3.1787
2.47232
1.76595
1.05957
0.35319
27.2729
26.8146
26.26
25.6459
24.9954
24.3226
23.6361
22.9413
22.2415
21.5388
20.8344
20.1291
19.4231
18.7167
18.0099
17.3029
16.5962
15.8897
15.1837
14.4779
13.7722
13.0665
12.3606
11.6546
10.9485
10.2422
9.53597
8.82965
8.1233
7.41694
6.71058
6.0042
5.29783
4.59145
3.88508
3.1787
2.47232
1.76595
1.05957
0.35319
27.273
26.8147
26.26
25.6459
24.9954
24.3226
23.6361
22.9413
22.2415
21.5388
20.8344
20.1291
19.4232
18.7167
18.0099
17.303
16.5962
15.8898
15.1837
14.478
13.7723
13.0665
12.3606
11.6546
10.9485
10.2423
9.53598
8.82966
8.12331
7.41695
6.71058
6.00421
5.29783
4.59145
3.88508
3.1787
2.47232
1.76595
1.05957
0.353189
27.2303
26.7803
26.2335
25.6259
24.9807
24.312
23.6286
22.9361
22.2379
21.5363
20.8328
20.128
19.4224
18.7163
18.0097
17.3029
16.5962
15.8898
15.1838
14.478
13.7723
13.0665
12.3606
11.6546
10.9485
10.2423
9.53597
8.82965
8.12331
7.41695
6.71058
6.00421
5.29783
4.59145
3.88508
3.1787
2.47232
1.76595
1.05957
0.353189
27.1471
26.7139
26.1824
25.5877
24.9527
24.2919
23.6143
22.9261
22.231
21.5316
20.8296
20.1258
19.421
18.7153
18.0091
17.3026
16.5962
15.8899
15.1839
14.4781
13.7723
13.0665
12.3606
11.6546
10.9484
10.2422
9.53594
8.82963
8.12329
7.41694
6.71057
6.0042
5.29783
4.59145
3.88507
3.1787
2.47232
1.76594
1.05957
0.353188
27.0282
26.6197
26.1106
25.5344
24.9139
24.2641
23.5947
22.9124
22.2216
21.5252
20.8252
20.1229
19.4191
18.7141
18.0084
17.3023
16.596
15.8899
15.184
14.4781
13.7723
13.0665
12.3605
11.6545
10.9484
10.2422
9.5359
8.8296
8.12327
7.41692
6.71056
6.00419
5.29782
4.59145
3.88507
3.1787
2.47232
1.76594
1.05957
0.353188
26.8809
26.5047
26.024
25.4709
24.8681
24.2315
23.5718
22.8965
22.2107
21.5178
20.8202
20.1196
19.4168
18.7126
18.0075
17.3018
16.5959
15.8899
15.184
14.4782
13.7723
13.0664
12.3605
11.6544
10.9483
10.2421
9.53585
8.82956
8.12324
7.4169
6.71054
6.00418
5.29781
4.59144
3.88507
3.17869
2.47232
1.76594
1.05957
0.353187
26.7155
26.3782
25.9304
25.4031
24.8197
24.1974
23.5481
22.8802
22.1995
21.5103
20.8152
20.1162
19.4146
18.7112
18.0066
17.3014
16.5957
15.8899
15.184
14.4782
13.7723
13.0664
12.3604
11.6544
10.9482
10.2421
9.53581
8.82952
8.12321
7.41688
6.71053
6.00417
5.29781
4.59144
3.88506
3.17869
2.47232
1.76594
1.05956
0.353187
26.5459
26.252
25.8392
25.3382
24.7742
24.1657
23.5263
22.8653
22.1894
21.5035
20.8106
20.1132
19.4126
18.7099
18.0059
17.3009
16.5955
15.8898
15.184
14.4782
13.7723
13.0664
12.3604
11.6543
10.9482
10.242
9.53577
8.82949
8.12319
7.41686
6.71052
6.00416
5.2978
4.59143
3.88506
3.17869
2.47231
1.76594
1.05956
0.353187
26.39
26.1405
25.761
25.284
24.7369
24.1402
23.5089
22.8535
22.1816
21.4982
20.8072
20.1109
19.4111
18.709
18.0053
17.3006
16.5954
15.8898
15.184
14.4782
13.7723
13.0663
12.3603
11.6543
10.9481
10.242
9.53573
8.82947
8.12317
7.41685
6.71051
6.00415
5.29779
4.59143
3.88506
3.17869
2.47231
1.76594
1.05956
0.353187
26.2699
26.0599
25.7072
25.2482
24.7131
24.1245
23.4985
22.8467
22.1771
21.4953
20.8053
20.1097
19.4104
18.7085
18.005
17.3005
16.5953
15.8898
15.184
14.4782
13.7723
13.0663
12.3603
11.6542
10.9481
10.2419
9.53572
8.82945
8.12316
7.41684
6.7105
6.00415
5.29779
4.59143
3.88506
3.17869
2.47231
1.76594
1.05956
0.353187
26.2113
26.0286
25.6906
25.2394
24.7085
24.1222
23.4975
22.8463
22.177
21.4954
20.8055
20.1099
19.4105
18.7086
18.0051
17.3006
16.5954
15.8898
15.184
14.4782
13.7723
13.0663
12.3603
11.6542
10.9481
10.2419
9.53571
8.82945
8.12315
7.41684
6.7105
6.00415
5.29779
4.59142
3.88506
3.17869
2.47231
1.76594
1.05956
0.353188
26.2697
26.0598
25.7071
25.2481
24.713
24.1243
23.4983
22.8465
22.1768
21.4951
20.805
20.1093
19.41
18.7081
18.0045
17.3
16.5948
15.8893
15.1836
14.4778
13.7719
13.066
12.36
11.654
10.9479
10.2418
9.5356
8.82937
8.12309
7.41679
6.71046
6.00413
5.29777
4.59142
3.88505
3.17868
2.47231
1.76594
1.05957
0.353191
26.3204
26.0707
25.7011
25.2365
24.7007
24.1133
23.4893
22.8393
22.1713
21.4909
20.8019
20.1071
19.4083
18.7069
18.0037
17.2994
16.5944
15.889
15.1834
14.4777
13.7718
13.0659
12.36
11.654
10.9479
10.2418
9.53558
8.82934
8.12307
7.41677
6.71045
6.00412
5.29777
4.59141
3.88505
3.17868
2.47231
1.76594
1.05957
0.353191
26.4406
26.1418
25.7424
25.26
24.7139
24.1205
23.4929
22.841
22.1719
21.4909
20.8017
20.1068
19.408
18.7066
18.0035
17.2992
16.5942
15.8889
15.1833
14.4776
13.7718
13.0659
12.36
11.654
10.9479
10.2418
9.53557
8.82934
8.12307
7.41677
6.71045
6.00411
5.29777
4.59141
3.88505
3.17868
2.47231
1.76594
1.05957
0.353191
26.6024
26.2498
25.8141
25.3073
24.7448
24.1406
23.5059
22.8493
22.1772
21.4942
20.8037
20.108
19.4087
18.707
18.0037
17.2993
16.5942
15.8888
15.1832
14.4775
13.7718
13.0659
12.36
11.654
10.9479
10.2418
9.53559
8.82935
8.12308
7.41678
6.71046
6.00412
5.29777
4.59141
3.88505
3.17868
2.47231
1.76594
1.05957
0.353191
26.7804
26.3753
25.9019
25.3682
24.7866
24.169
23.525
22.862
22.1856
21.4997
20.8072
20.1103
19.4101
18.7079
18.0042
17.2995
16.5943
15.8888
15.1832
14.4775
13.7718
13.0659
12.36
11.654
10.948
10.2418
9.53562
8.82938
8.1231
7.41679
6.71047
6.00412
5.29777
4.59141
3.88505
3.17868
2.47231
1.76594
1.05957
0.353192
26.9543
26.5025
25.9938
25.4336
24.8326
24.201
23.547
22.877
22.1956
21.5064
20.8117
20.1132
19.412
18.7091
18.0049
17.2999
16.5945
15.8889
15.1832
14.4775
13.7718
13.066
12.3601
11.6541
10.948
10.2419
9.53567
8.82941
8.12312
7.41681
6.71048
6.00413
5.29778
4.59142
3.88505
3.17868
2.47231
1.76594
1.05957
0.353192
27.109
26.6185
26.0795
25.4958
24.877
24.2323
23.5688
22.892
22.2058
21.5133
20.8163
20.1162
19.414
18.7104
18.0057
17.3003
16.5947
15.8889
15.1832
14.4775
13.7718
13.066
12.3601
11.6542
10.9481
10.2419
9.53571
8.82945
8.12315
7.41683
6.71049
6.00414
5.29779
4.59142
3.88506
3.17869
2.47232
1.76594
1.05957
0.353192
27.2338
26.7137
26.1507
25.5482
24.9149
24.2592
23.5877
22.9051
22.2148
21.5194
20.8204
20.119
19.4159
18.7116
18.0064
17.3007
16.5948
15.889
15.1832
14.4775
13.7719
13.0661
12.3602
11.6542
10.9482
10.242
9.53576
8.82949
8.12318
7.41685
6.71051
6.00416
5.29779
4.59143
3.88506
3.17869
2.47232
1.76594
1.05957
0.353192
27.3209
26.7809
26.2016
25.5859
24.9424
24.2789
23.6016
22.9148
22.2215
21.5239
20.8234
20.121
19.4173
18.7125
18.007
17.301
16.595
15.889
15.1832
14.4776
13.7719
13.0662
12.3603
11.6543
10.9482
10.242
9.5358
8.82952
8.12321
7.41687
6.71052
6.00417
5.2978
4.59143
3.88506
3.17869
2.47232
1.76595
1.05957
0.353192
27.3657
26.8156
26.228
25.6056
24.9568
24.2893
23.609
22.9199
22.225
21.5263
20.8251
20.1222
19.418
18.713
18.0073
17.3012
16.5951
15.8891
15.1833
14.4776
13.7719
13.0662
12.3603
11.6543
10.9483
10.2421
9.53583
8.82954
8.12322
7.41689
6.71053
6.00417
5.29781
4.59144
3.88507
3.17869
2.47232
1.76595
1.05957
0.353192
27.3657
26.8156
26.228
25.6056
24.9568
24.2893
23.609
22.9199
22.2251
21.5264
20.8251
20.1222
19.4181
18.7131
18.0074
17.3013
16.5951
15.8891
15.1833
14.4776
13.772
13.0662
12.3604
11.6544
10.9483
10.2421
9.53584
8.82955
8.12323
7.41689
6.71054
6.00418
5.29781
4.59144
3.88507
3.17869
2.47232
1.76595
1.05957
0.353191
27.321
26.7809
26.2016
25.5859
24.9424
24.279
23.6017
22.9148
22.2216
21.524
20.8235
20.1211
19.4174
18.7126
18.0071
17.3012
16.5951
15.8892
15.1834
14.4777
13.772
13.0662
12.3604
11.6544
10.9483
10.2421
9.53584
8.82955
8.12323
7.41689
6.71054
6.00417
5.29781
4.59144
3.88507
3.17869
2.47232
1.76595
1.05957
0.353191
27.2339
26.7137
26.1508
25.5482
24.915
24.2593
23.5878
22.9052
22.2149
21.5195
20.8205
20.1191
19.4161
18.7118
18.0066
17.301
16.5951
15.8892
15.1834
14.4777
13.772
13.0662
12.3603
11.6543
10.9482
10.2421
9.53582
8.82953
8.12322
7.41688
6.71053
6.00417
5.29781
4.59144
3.88507
3.17869
2.47232
1.76595
1.05957
0.353191
27.1091
26.6186
26.0795
25.4958
24.8771
24.2324
23.5689
22.8921
22.206
21.5134
20.8165
20.1164
19.4143
18.7107
18.006
17.3006
16.595
15.8892
15.1835
14.4778
13.772
13.0662
12.3603
11.6543
10.9482
10.242
9.53579
8.82951
8.1232
7.41687
6.71052
6.00417
5.2978
4.59143
3.88506
3.17869
2.47232
1.76595
1.05957
0.35319
26.9544
26.5026
25.9939
25.4337
24.8327
24.2011
23.5471
22.8771
22.1958
21.5066
20.8119
20.1134
19.4123
18.7094
18.0052
17.3003
16.5949
15.8892
15.1835
14.4778
13.7721
13.0662
12.3603
11.6543
10.9482
10.242
9.53576
8.82949
8.12318
7.41685
6.71051
6.00416
5.2978
4.59143
3.88506
3.17869
2.47232
1.76594
1.05957
0.35319
26.7805
26.3754
25.9021
25.3683
24.7867
24.1691
23.5252
22.8622
22.1858
21.4999
20.8075
20.1106
19.4105
18.7083
18.0046
17.2999
16.5947
15.8892
15.1836
14.4779
13.7721
13.0662
12.3602
11.6542
10.9481
10.2419
9.53573
8.82946
8.12316
7.41684
6.7105
6.00415
5.29779
4.59143
3.88506
3.17869
2.47232
1.76594
1.05957
0.353189
26.6026
26.2499
25.8142
25.3074
24.745
24.1408
23.5061
22.8495
22.1774
21.4945
20.804
20.1083
19.4091
18.7074
18.0041
17.2997
16.5947
15.8893
15.1836
14.4779
13.7721
13.0662
12.3602
11.6542
10.9481
10.2419
9.5357
8.82944
8.12315
7.41683
6.71049
6.00414
5.29779
4.59142
3.88506
3.17869
2.47231
1.76594
1.05957
0.353189
26.4407
26.1419
25.7425
25.2601
24.714
24.1206
23.4931
22.8412
22.1722
21.4912
20.802
20.1071
19.4084
18.707
18.0039
17.2997
16.5947
15.8893
15.1837
14.478
13.7721
13.0662
12.3602
11.6542
10.9481
10.2419
9.53569
8.82943
8.12314
7.41682
6.71049
6.00414
5.29778
4.59142
3.88505
3.17868
2.47231
1.76594
1.05957
0.353188
26.3206
26.0708
25.7012
25.2366
24.7008
24.1135
23.4894
22.8395
22.1716
21.4912
20.8022
20.1074
19.4087
18.7073
18.0042
17.2999
16.5949
15.8895
15.1838
14.478
13.7722
13.0662
12.3603
11.6542
10.9481
10.2419
9.53569
8.82943
8.12314
7.41682
6.71049
6.00414
5.29778
4.59142
3.88505
3.17868
2.47231
1.76594
1.05956
0.353188
26.2699
26.0599
25.7072
25.2482
24.7131
24.1245
23.4985
22.8467
22.1771
21.4953
20.8053
20.1097
19.4103
18.7085
18.005
17.3005
16.5953
15.8897
15.184
14.4782
13.7723
13.0663
12.3603
11.6542
10.9481
10.2419
9.53571
8.82945
8.12315
7.41683
6.7105
6.00415
5.29779
4.59142
3.88506
3.17868
2.47231
1.76594
1.05956
0.353188
26.3898
26.1404
25.7609
25.2839
24.7367
24.1401
23.5087
22.8533
22.1813
21.498
20.8069
20.1105
19.4107
18.7085
18.0048
17.3001
16.5949
15.8893
15.1836
14.4778
13.7719
13.066
12.3601
11.654
10.948
10.2418
9.53562
8.82938
8.1231
7.4168
6.71047
6.00413
5.29778
4.59142
3.88505
3.17868
2.47231
1.76594
1.05957
0.353191
26.4406
26.1418
25.7424
25.26
24.7139
24.1205
23.4929
22.841
22.1719
21.4909
20.8017
20.1068
19.408
18.7066
18.0035
17.2992
16.5942
15.8889
15.1833
14.4776
13.7718
13.0659
12.36
11.654
10.9479
10.2418
9.53558
8.82934
8.12307
7.41677
6.71045
6.00411
5.29777
4.59141
3.88505
3.17868
2.47231
1.76594
1.05957
0.353191
26.5612
26.208
25.7759
25.2753
24.7194
24.1211
23.4913
22.8386
22.1694
21.4886
20.7997
20.1052
19.4067
18.7056
18.0027
17.2987
16.5938
15.8886
15.1831
14.4774
13.7717
13.0658
12.3599
11.6539
10.9479
10.2417
9.53555
8.82932
8.12306
7.41676
6.71044
6.00411
5.29776
4.59141
3.88504
3.17868
2.47231
1.76594
1.05956
0.35319
26.7268
26.3146
25.8434
25.3174
24.7454
24.1368
23.5006
22.8439
22.1723
21.4901
20.8004
20.1054
19.4067
18.7055
18.0025
17.2985
16.5936
15.8884
15.1829
14.4773
13.7716
13.0658
12.3599
11.6539
10.9479
10.2417
9.53555
8.82932
8.12306
7.41676
6.71044
6.00411
5.29776
4.5914
3.88504
3.17868
2.47231
1.76594
1.05956
0.353191
26.9107
26.4411
25.9295
25.3754
24.7839
24.1622
23.5172
22.8545
22.1791
21.4943
20.8029
20.1069
19.4076
18.706
18.0028
17.2985
16.5936
15.8883
15.1828
14.4773
13.7716
13.0658
12.3599
11.6539
10.9479
10.2418
9.53557
8.82934
8.12307
7.41677
6.71045
6.00411
5.29776
4.5914
3.88504
3.17868
2.47231
1.76594
1.05956
0.353191
27.0914
26.5704
26.021
25.4393
24.828
24.1923
23.5374
22.868
22.1879
21.5
20.8066
20.1092
19.4091
18.7069
18.0032
17.2987
16.5936
15.8882
15.1828
14.4772
13.7716
13.0658
12.36
11.654
10.9479
10.2418
9.53561
8.82936
8.12309
7.41678
6.71046
6.00412
5.29776
4.59141
3.88504
3.17868
2.47231
1.76594
1.05956
0.353191
27.2527
26.6888
26.1069
25.5007
24.8713
24.2224
23.558
22.882
22.1972
21.5062
20.8106
20.1119
19.4108
18.7079
18.0039
17.299
16.5937
15.8882
15.1827
14.4772
13.7716
13.0659
12.36
11.6541
10.948
10.2419
9.53565
8.8294
8.12311
7.4168
6.71047
6.00412
5.29777
4.59141
3.88505
3.17868
2.47231
1.76594
1.05956
0.35319
27.3828
26.7862
26.1786
25.5528
24.9085
24.2486
23.5762
22.8944
22.2056
21.5118
20.8144
20.1144
19.4124
18.709
18.0045
17.2993
16.5937
15.8882
15.1827
14.4772
13.7717
13.0659
12.3601
11.6541
10.9481
10.2419
9.53569
8.82943
8.12313
7.41682
6.71048
6.00413
5.29778
4.59141
3.88505
3.17868
2.47231
1.76593
1.05956
0.35319
27.4737
26.855
26.2299
25.5904
24.9356
24.2678
23.5897
22.9037
22.2119
21.516
20.8172
20.1163
19.4137
18.7098
18.005
17.2995
16.5938
15.8882
15.1827
14.4772
13.7717
13.066
12.3602
11.6542
10.9481
10.2419
9.53572
8.82946
8.12315
7.41683
6.71049
6.00414
5.29778
4.59142
3.88505
3.17868
2.47231
1.76594
1.05956
0.35319
27.5204
26.8906
26.2566
25.61
24.9499
24.278
23.5968
22.9087
22.2153
21.5183
20.8187
20.1173
19.4144
18.7103
18.0053
17.2997
16.5939
15.8882
15.1827
14.4773
13.7717
13.066
12.3602
11.6542
10.9481
10.242
9.53575
8.82947
8.12317
7.41684
6.7105
6.00415
5.29778
4.59142
3.88505
3.17868
2.47231
1.76594
1.05956
0.35319
27.5204
26.8906
26.2566
25.6101
24.9499
24.278
23.5969
22.9087
22.2153
21.5183
20.8188
20.1173
19.4145
18.7104
18.0053
17.2997
16.5939
15.8882
15.1827
14.4773
13.7718
13.0661
12.3602
11.6543
10.9482
10.242
9.53576
8.82948
8.12318
7.41685
6.7105
6.00415
5.29779
4.59142
3.88505
3.17868
2.47231
1.76594
1.05956
0.353189
27.4738
26.855
26.23
25.5904
24.9357
24.2679
23.5897
22.9038
22.212
21.5161
20.8173
20.1164
19.4138
18.71
18.0051
17.2997
16.594
15.8883
15.1828
14.4774
13.7718
13.0661
12.3602
11.6543
10.9482
10.242
9.53576
8.82948
8.12318
7.41685
6.7105
6.00415
5.29779
4.59142
3.88505
3.17868
2.47231
1.76593
1.05956
0.353189
27.3829
26.7862
26.1787
25.5528
24.9086
24.2487
23.5763
22.8945
22.2057
21.5119
20.8145
20.1145
19.4126
18.7092
18.0047
17.2995
16.594
15.8884
15.1829
14.4774
13.7718
13.0661
12.3602
11.6542
10.9481
10.242
9.53574
8.82947
8.12317
7.41684
6.7105
6.00415
5.29779
4.59142
3.88505
3.17868
2.47231
1.76593
1.05956
0.353189
27.2528
26.6889
26.107
25.5008
24.8714
24.2225
23.5582
22.8821
22.1974
21.5064
20.8108
20.1121
19.4111
18.7082
18.0042
17.2993
16.594
15.8885
15.183
14.4775
13.7718
13.0661
12.3602
11.6542
10.9481
10.2419
9.53572
8.82945
8.12316
7.41683
6.71049
6.00414
5.29778
4.59142
3.88505
3.17868
2.47231
1.76593
1.05956
0.353189
27.0915
26.5705
26.0211
25.4394
24.8281
24.1924
23.5375
22.8682
22.1881
21.5002
20.8068
20.1095
19.4094
18.7072
18.0036
17.2991
16.594
15.8886
15.1831
14.4775
13.7719
13.0661
12.3602
11.6542
10.9481
10.2419
9.5357
8.82944
8.12314
7.41682
6.71049
6.00414
5.29778
4.59142
3.88505
3.17868
2.47231
1.76593
1.05956
0.353189
26.9108
26.4412
25.9297
25.3755
24.7841
24.1624
23.5173
22.8547
22.1793
21.4945
20.8032
20.1072
19.408
18.7064
18.0032
17.2989
16.594
15.8887
15.1832
14.4776
13.7719
13.0661
12.3601
11.6541
10.948
10.2419
9.53568
8.82942
8.12313
7.41681
6.71048
6.00413
5.29778
4.59142
3.88505
3.17868
2.47231
1.76593
1.05956
0.353189
26.7269
26.3147
25.8436
25.3176
24.7455
24.137
23.5008
22.8441
22.1725
21.4904
20.8007
20.1057
19.4071
18.7059
18.003
17.2989
16.5941
15.8888
15.1833
14.4777
13.7719
13.0661
12.3601
11.6541
10.948
10.2419
9.53566
8.82941
8.12312
7.41681
6.71048
6.00413
5.29778
4.59142
3.88505
3.17868
2.47231
1.76594
1.05956
0.353189
26.5614
26.2081
25.776
25.2754
24.7195
24.1213
23.4915
22.8388
22.1696
21.4889
20.8
20.1055
19.4071
18.7061
18.0032
17.2991
16.5943
15.889
15.1835
14.4778
13.772
13.0661
12.3602
11.6541
10.948
10.2419
9.53566
8.82941
8.12312
7.41681
6.71048
6.00413
5.29778
4.59142
3.88505
3.17868
2.47231
1.76594
1.05956
0.353189
26.4407
26.1419
25.7425
25.2601
24.714
24.1206
23.4931
22.8412
22.1722
21.4912
20.802
20.1071
19.4084
18.707
18.0039
17.2997
16.5947
15.8893
15.1837
14.478
13.7721
13.0662
12.3602
11.6542
10.9481
10.2419
9.53568
8.82942
8.12313
7.41682
6.71048
6.00414
5.29778
4.59142
3.88505
3.17868
2.47231
1.76594
1.05956
0.353188
26.39
26.1405
25.761
25.284
24.7369
24.1402
23.5089
22.8535
22.1815
21.4982
20.8072
20.1109
19.4111
18.709
18.0053
17.3006
16.5953
15.8897
15.184
14.4781
13.7723
13.0663
12.3603
11.6542
10.9481
10.2419
9.53572
8.82945
8.12316
7.41683
6.7105
6.00415
5.29779
4.59142
3.88505
3.17868
2.47231
1.76594
1.05956
0.353188
26.5458
26.2519
25.8391
25.3381
24.7741
24.1656
23.5261
22.8651
22.1892
21.5032
20.8103
20.1128
19.4122
18.7095
18.0054
17.3004
16.595
15.8893
15.1836
14.4778
13.7719
13.0661
12.3601
11.6541
10.948
10.2419
9.53565
8.8294
8.12312
7.41681
6.71048
6.00414
5.29778
4.59142
3.88506
3.17869
2.47232
1.76594
1.05957
0.353192
26.6024
26.2498
25.8141
25.3073
24.7448
24.1406
23.5059
22.8493
22.1772
21.4942
20.8037
20.108
19.4087
18.707
18.0037
17.2993
16.5942
15.8888
15.1832
14.4775
13.7718
13.0659
12.36
11.654
10.9479
10.2418
9.53559
8.82935
8.12308
7.41678
6.71046
6.00412
5.29777
4.59141
3.88505
3.17868
2.47231
1.76594
1.05957
0.353191
26.7268
26.3146
25.8434
25.3174
24.7454
24.1368
23.5006
22.8439
22.1723
21.4901
20.8004
20.1054
19.4067
18.7055
18.0025
17.2984
16.5936
15.8884
15.1829
14.4773
13.7716
13.0658
12.3599
11.6539
10.9479
10.2417
9.53555
8.82932
8.12306
7.41676
6.71044
6.00411
5.29776
4.5914
3.88504
3.17868
2.47231
1.76594
1.05956
0.353191
26.8962