# vtk DataFile Version 2.0
I need something to put here
ASCII

DATASET STRUCTURED_GRID
DIMENSIONS 41 21 21
POINTS 18081 float
0.000000 0.000000 0.000000
0.100000 0.000000 0.000000
0.200000 0.000000 0.000000
0.300000 0.000000 0.000000
0.400000 0.000000 0.000000
0.500000 0.000000 0.000000
0.600000 0.000000 0.000000
0.700000 0.000000 0.000000
0.800000 0.000000 0.000000
0.900000 0.000000 0.000000
1.000000 0.000000 0.000000
1.100000 0.000000 0.000000
1.200000 0.000000 0.000000
1.300000 0.000000 0.000000
1.400000 0.000000 0.000000
1.500000 0.000000 0.000000
1.600000 0.000000 0.000000
1.700000 0.000000 0.000000
1.800000 0.000000 0.000000
1.900000 0.000000 0.000000
2.000000 0.000000 0.000000
2.100000 0.000000 0.000000
2.200000 0.000000 0.000000
2.300000 0.000000 0.000000
2.400000 0.000000 0.000000
2.500000 0.000000 0.000000
2.600000 0.000000 0.000000
2.700000 0.000000 0.000000
2.800000 0.000000 0.000000
2.900000 0.000000 0.000000
3.000000 0.000000 0.000000
3.100000 0.000000 0.000000
3.200000 0.000000 0.000000
3.300000 0.000000 0.000000
3.400000 0.000000 0.000000
3.500000 0.000000 0.000000
3.600000 0.000000 0.000000
3.700000 0.000000 0.000000
3.800000 0.000000 0.000000
3.900000 0.000000 0.000000
4.000000 0.000000 0.000000
0.000000 0.100000 0.000000
0.100000 0.100000 0.000000
0.200000 0.100000 0.000000
0.300000 0.100000 0.000000
0.400000 0.100000 0.000000
0.500000 0.100000 0.000000
0.600000 0.100000 0.000000
0.700000 0.100000 0.000000
0.800000 0.100000 0.000000
0.900000 0.100000 0.000000
1.000000 0.100000 0.000000
1.100000 0.100000 0.000000
1.200000 0.100000 0.000000
1.300000 0.100000 0.000000
1.400000 0.100000 0.000000
1.500000 0.100000 0.000000
1.600000 0.100000 0.000000
1.700000 0.100000 0.000000
1.800000 0.100000 0.000000
1.900000 0.100000 0.000000
2.000000 0.100000 0.000000
2.100000 0.100000 0.000000
2.200000 0.100000 0.000000
2.300000 0.100000 0.000000
2.400000 0.100000 0.000000
2.500000 0.100000 0.000000
2.600000 0.100000 0.000000
2.700000 0.100000 0.000000
2.800000 0.100000 0.000000
2.900000 0.100000 0.000000
3.000000 0.100000 0.000000
3.100000 0.100000 0.000000
3.200000 0.100000 0.000000
3.300000 0.100000 0.000000
3.400000 0.100000 0.000000
3.500000 0.100000 0.000000
3.600000 0.100000 0.000000
3.700000 0.100000 0.000000
3.800000 0.100000 0.000000
3.900000 0.100000 0.000000
4.000000 0.100000 0.000000
0.000000 0.200000 0.000000
0.100000 0.200000 0.000000
0.200000 0.200000 0.000000
0.300000 0.200000 0.000000
0.400000 0.200000 0.000000
0.500000 0.200000 0.000000
0.600000 0.200000 0.000000
0.700000 0.200000 0.000000
0.800000 0.200000 0.000000
0.900000 0.200000 0.000000
1.000000 0.200000 0.000000
1.100000 0.200000 0.000000
1.200000 0.200000 0.000000
1.300000 0.200000 0.000000
1.400000 0.200000 0.000000
1.500000 0.200000 0.000000
1.600000 0.200000 0.000000
1.700000 0.200000 0.000000
1.800000 0.200000 0.000000
1.900000 0.200000 0.000000
2.000000 0.200000 0.000000
2.100000 0.200000 0.000000
2.200000 0.200000 0.000000
2.300000 0.200000 0.000000
2.400000 0.200000 0.000000
2.500000 0.200000 0.000000
2.600000 0.200000 0.000000
2.700000 0.200000 0.000000
2.800000 0.200000 0.000000
2.900000 0.200000 0.000000
3.000000 0.200000 0.000000
3.100000 0.200000 0.000000
3.200000 0.200000 0.000000
3.300000 0.200000 0.000000
3.400000 0.200000 0.000000
3.500000 0.200000 0.000000
3.600000 0.200000 0.000000
3.700000 0.200000 0.000000
3.800000 0.200000 0.000000
3.900000 0.200000 0.000000
4.000000 0.200000 0.000000
0.000000 0.300000 0.000000
0.100000 0.300000 0.000000
0.200000 0.300000 0.000000
0.300000 0.300000 0.000000
0.400000 0.300000 0.000000
0.500000 0.300000 0.000000
0.600000 0.300000 0.000000
0.700000 0.300000 0.000000
0.800000 0.300000 0.000000
0.900000 0.300000 0.000000
1.000000 0.300000 0.000000
1.100000 0.300000 0.000000
1.200000 0.300000 0.000000
1.300000 0.300000 0.000000
1.400000 0.300000 0.000000
1.500000 0.300000 0.000000
1.600000 0.300000 0.000000
1.700000 0.300000 0.000000
1.800000 0.300000 0.000000
1.900000 0.300000 0.000000
2.000000 0.300000 0.000000
2.100000 0.300000 0.000000
2.200000 0.300000 0.000000
2.300000 0.300000 0.000000
2.400000 0.300000 0.000000
2.500000 0.300000 0.000000
2.600000 0.300000 0.000000
2.700000 0.300000 0.000000
2.800000 0.300000 0.000000
2.900000 0.300000 0.000000
3.000000 0.300000 0.000000
3.100000 0.300000 0.000000
3.200000 0.300000 0.000000
3.300000 0.300000 0.000000
3.400000 0.300000 0.000000
3.500000 0.300000 0.000000
3.600000 0.300000 0.000000
3.700000 0.300000 0.000000
3.800000 0.300000 0.000000
3.900000 0.300000 0.000000
4.000000 0.300000 0.000000
0.000000 0.400000 0.000000
0.100000 0.400000 0.000000
0.200000 0.400000 0.000000
0.300000 0.400000 0.000000
0.400000 0.400000 0.000000
0.500000 0.400000 0.000000
0.600000 0.400000 0.000000
0.700000 0.400000 0.000000
0.800000 0.400000 0.000000
0.900000 0.400000 0.000000
1.000000 0.400000 0.000000
1.100000 0.400000 0.000000
1.200000 0.400000 0.000000
1.300000 0.400000 0.000000
1.400000 0.400000 0.000000
1.500000 0.400000 0.000000
1.600000 0.400000 0.000000
1.700000 0.400000 0.000000
1.800000 0.400000 0.000000
1.900000 0.400000 0.000000
2.000000 0.400000 0.000000
2.100000 0.400000 0.000000
2.200000 0.400000 0.000000
2.300000 0.400000 0.000000
2.400000 0.400000 0.000000
2.500000 0.400000 0.000000
2.600000 0.400000 0.000000
2.700000 0.400000 0.000000
2.800000 0.400000 0.000000
2.900000 0.400000 0.000000
3.000000 0.400000 0.000000
3.100000 0.400000 0.000000
3.200000 0.400000 0.000000
3.300000 0.400000 0.000000
3.400000 0.400000 0.000000
3.500000 0.400000 0.000000
3.600000 0.400000 0.000000
3.700000 0.400000 0.000000
3.800000 0.400000 0.000000
3.900000 0.400000 0.000000
4.000000 0.400000 0.000000
0.000000 0.500000 0.000000
0.100000 0.500000 0.000000
0.200000 0.500000 0.000000
0.300000 0.500000 0.000000
0.400000 0.500000 0.000000
0.500000 0.500000 0.000000
0.600000 0.500000 0.000000
0.700000 0.500000 0.000000
0.800000 0.500000 0.000000
0.900000 0.500000 0.000000
1.000000 0.500000 0.000000
1.100000 0.500000 0.000000
1.200000 0.500000 0.000000
1.300000 0.500000 0.000000
1.400000 0.500000 0.000000
1.500000 0.500000 0.000000
1.600000 0.500000 0.000000
1.700000 0.500000 0.000000
1.800000 0.500000 0.000000
1.900000 0.500000 0.000000
2.000000 0.500000 0.000000
2.100000 0.500000 0.000000
2.200000 0.500000 0.000000
2.300000 0.500000 0.000000
2.400000 0.500000 0.000000
2.500000 0.500000 0.000000
2.600000 0.500000 0.000000
2.700000 0.500000 0.000000
2.800000 0.500000 0.000000
2.900000 0.500000 0.000000
3.000000 0.500000 0.000000
3.100000 0.500000 0.000000
3.200000 0.500000 0.000000
3.300000 0.500000 0.000000
3.400000 0.500000 0.000000
3.500000 0.500000 0.000000
3.600000 0.500000 0.000000
3.700000 0.500000 0.000000
3.800000 0.500000 0.000000
3.900000 0.500000 0.000000
4.000000 0.500000 0.000000
0.000000 0.600000 0.000000
0.100000 0.600000 0.000000
0.200000 0.600000 0.000000
0.300000 0.600000 0.000000
0.400000 0.600000 0.000000
0.500000 0.600000 0.000000
0.600000 0.600000 0.000000
0.700000 0.600000 0.000000
0.800000 0.600000 0.000000
0.900000 0.600000 0.000000
1.000000 0.600000 0.000000
1.100000 0.600000 0.000000
1.200000 0.600000 0.000000
1.300000 0.600000 0.000000
1.400000 0.600000 0.000000
1.500000 0.600000 0.000000
1.600000 0.600000 0.000000
1.700000 0.600000 0.000000
1.800000 0.600000 0.000000
1.900000 0.600000 0.000000
2.000000 0.600000 0.000000
2.100000 0.600000 0.000000
2.200000 0.600000 0.000000
2.300000 0.600000 0.000000
2.400000 0.600000 0.000000
2.500000 0.600000 0.000000
2.600000 0.600000 0.000000
2.700000 0.600000 0.000000
2.800000 0.600000 0.000000
2.900000 0.600000 0.000000
3.000000 0.600000 0.000000
3.100000 0.600000 0.000000
3.200000 0.600000 0.000000
3.300000 0.600000 0.000000
3.400000 0.600000 0.000000
3.500000 0.600000 0.000000
3.600000 0.600000 0.000000
3.700000 0.600000 0.000000
3.800000 0.600000 0.000000
3.900000 0.600000 0.000000
4.000000 0.600000 0.000000
0.000000 0.700000 0.000000
0.100000 0.700000 0.000000
0.200000 0.700000 0.000000
0.300000 0.700000 0.000000
0.400000 0.700000 0.000000
0.500000 0.700000 0.000000
0.600000 0.700000 0.000000
0.700000 0.700000 0.000000
0.800000 0.700000 0.000000
0.900000 0.700000 0.000000
1.000000 0.700000 0.000000
1.100000 0.700000 0.000000
1.200000 0.700000 0.000000
1.300000 0.700000 0.000000
1.400000 0.700000 0.000000
1.500000 0.700000 0.000000
1.600000 0.700000 0.000000
1.700000 0.700000 0.000000
1.800000 0.700000 0.000000
1.900000 0.700000 0.000000
2.000000 0.700000 0.000000
2.100000 0.700000 0.000000
2.200000 0.700000 0.000000
2.300000 0.700000 0.000000
2.400000 0.700000 0.000000
2.500000 0.700000 0.000000
2.600000 0.700000 0.000000
2.700000 0.700000 0.000000
2.800000 0.700000 0.000000
2.900000 0.700000 0.000000
3.000000 0.700000 0.000000
3.100000 0.700000 0.000000
3.200000 0.700000 0.000000
3.300000 0.700000 0.000000
3.400000 0.700000 0.000000
3.500000 0.700000 0.000000
3.600000 0.700000 0.000000
3.700000 0.700000 0.000000
3.800000 0.700000 0.000000
3.900000 0.700000 0.000000
4.000000 0.700000 0.000000
0.000000 0.800000 0.000000
0.100000 0.800000 0.000000
0.200000 0.800000 0.000000
0.300000 0.800000 0.000000
0.400000 0.800000 0.000000
0.500000 0.800000 0.000000
0.600000 0.800000 0.000000
0.700000 0.800000 0.000000
0.800000 0.800000 0.000000
0.900000 0.800000 0.000000
1.000000 0.800000 0.000000
1.100000 0.800000 0.000000
1.200000 0.800000 0.000000
1.300000 0.800000 0.000000
1.400000 0.800000 0.000000
1.500000 0.800000 0.000000
1.600000 0.800000 0.000000
1.700000 0.800000 0.000000
1.800000 0.800000 0.000000
1.900000 0.800000 0.000000
2.000000 0.800000 0.000000
2.100000 0.800000 0.000000
2.200000 0.800000 0.000000
2.300000 0.800000 0.000000
2.400000 0.800000 0.000000
2.500000 0.800000 0.000000
2.600000 0.800000 0.000000
2.700000 0.800000 0.000000
2.800000 0.800000 0.000000
2.900000 0.800000 0.000000
3.000000 0.800000 0.000000
3.100000 0.800000 0.000000
3.200000 0.800000 0.000000
3.300000 0.800000 0.000000
3.400000 0.800000 0.000000
3.500000 0.800000 0.000000
3.600000 0.800000 0.000000
[...]
CELL_DATA 16000
SCALARS pressure float 1
LOOKUP_TABLE default
26.2137
26.031
25.6929
25.2418
24.7109
24.1245
23.4997
22.8484
22.179
21.4973
20.8072
20.1114
19.4118
18.7097
18.006
17.3013
16.5959
15.8902
15.1844
14.4784
13.7724
13.0664
12.3604
11.6543
10.9481
10.2419
9.5357
8.82943
8.12314
7.41682
6.71049
6.00414
5.29778
4.59142
3.88505
3.17869
2.47231
1.76594
1.05957
0.35319
26.2722
26.0622
25.7096
25.2506
24.7155
24.1268
23.5007
22.8488
22.1791
21.4972
20.807
20.1112
19.4116
18.7096
18.0059
17.3012
16.5958
15.8902
15.1843
14.4784
13.7724
13.0664
12.3604
11.6543
10.9481
10.2419
9.5357
8.82943
8.12314
7.41682
6.71049
6.00414
5.29778
4.59142
3.88505
3.17868
2.47231
1.76594
1.05957
0.35319
26.3923
26.1429
25.7634
25.2864
24.7392
24.1425
23.5111
22.8557
22.1836
21.5001
20.8089
20.1124
19.4124
18.71
18.0062
17.3013
16.5959
15.8902
15.1843
14.4784
13.7724
13.0664
12.3604
11.6543
10.9481
10.2419
9.53571
8.82944
8.12315
7.41683
6.71049
6.00414
5.29778
4.59142
3.88505
3.17868
2.47231
1.76594
1.05957
0.35319
26.5483
26.2544
25.8416
25.3406
24.7766
24.1681
23.5285
22.8674
22.1915
21.5053
20.8123
20.1147
19.4139
18.711
18.0067
17.3016
16.596
15.8902
15.1843
14.4784
13.7724
13.0664
12.3604
11.6543
10.9482
10.242
9.53574
8.82946
8.12316
7.41684
6.7105
6.00415
5.29779
4.59142
3.88506
3.17869
2.47231
1.76594
1.05957
0.35319
26.7179
26.3806
25.9329
25.4055
24.8221
24.1998
23.5504
22.8824
22.2016
21.5122
20.8169
20.1177
19.4159
18.7123
18.0075
17.3021
16.5962
15.8903
15.1843
14.4784
13.7724
13.0665
12.3604
11.6544
10.9482
10.242
9.53578
8.8295
8.12319
7.41686
6.71051
6.00416
5.29779
4.59143
3.88506
3.17869
2.47231
1.76594
1.05957
0.35319
26.8833
26.5071
26.0265
25.4733
24.8705
24.2338
23.5741
22.8988
22.2128
21.5198
20.822
20.1212
19.4182
18.7138
18.0084
17.3026
16.5965
15.8903
15.1843
14.4784
13.7725
13.0665
12.3605
11.6544
10.9483
10.2421
9.53583
8.82953
8.12321
7.41688
6.71053
6.00417
5.2978
4.59143
3.88506
3.17869
2.47232
1.76594
1.05957
0.353189
27.0307
26.6222
26.1131
25.5369
24.9164
24.2665
23.5971
22.9147
22.2238
21.5273
20.8271
20.1246
19.4205
18.7153
18.0093
17.3031
16.5967
15.8904
15.1843
14.4784
13.7725
13.0666
12.3606
11.6545
10.9484
10.2421
9.53588
8.82957
8.12324
7.4169
6.71054
6.00418
5.29781
4.59144
3.88506
3.17869
2.47232
1.76594
1.05957
0.353189
27.1496
26.7163
26.1849
25.5902
24.9552
24.2943
23.6168
22.9285
22.2333
21.5337
20.8315
20.1276
19.4225
18.7166
18.0101
17.3035
16.5969
15.8904
15.1843
14.4784
13.7725
13.0666
12.3607
11.6546
10.9484
10.2422
9.53593
8.82961
8.12327
7.41692
6.71056
6.00419
5.29782
4.59144
3.88507
3.17869
2.47232
1.76594
1.05957
0.353188
27.2328
26.7829
26.236
25.6285
24.9833
24.3145
23.6311
22.9385
22.2402
21.5385
20.8348
20.1298
19.424
18.7176
18.0108
17.3038
16.597
15.8905
15.1843
14.4784
13.7726
13.0667
12.3607
11.6547
10.9485
10.2423
9.53597
8.82964
8.1233
7.41694
6.71057
6.0042
5.29782
4.59145
3.88507
3.17869
2.47232
1.76594
1.05956
0.353187
27.2755
26.8172
26.2626
25.6484
24.9979
24.3252
23.6387
22.9438
22.2439
21.5411
20.8365
20.131
19.4248
18.7181
18.0111
17.304
16.5971
15.8905
15.1843
14.4784
13.7726
13.0667
12.3608
11.6547
10.9485
10.2423
9.53599
8.82966
8.12331
7.41695
6.71058
6.0042
5.29783
4.59145
3.88507
3.17869
2.47232
1.76594
1.05956
0.353186
27.2755
26.8172
26.2626
25.6484
24.998
24.3252
23.6387
22.9438
22.2439
21.5411
20.8365
20.131
19.4248
18.7182
18.0111
17.304
16.5971
15.8905
15.1843
14.4784
13.7726
13.0667
12.3608
11.6547
10.9485
10.2423
9.536
8.82967
8.12332
7.41695
6.71058
6.0042
5.29783
4.59145
3.88507
3.17869
2.47232
1.76594
1.05956
0.353186
27.2328
26.7829
26.2361
25.6285
24.9833
24.3146
23.6312
22.9386
22.2403
21.5386
20.8348
20.1299
19.4241
18.7177
18.0109
17.3039
16.5971
15.8906
15.1844
14.4785
13.7726
13.0667
12.3608
11.6547
10.9485
10.2423
9.53599
8.82966
8.12331
7.41695
6.71058
6.0042
5.29783
4.59145
3.88507
3.17869
2.47232
1.76594
1.05956
0.353185
27.1497
26.7164
26.1849
25.5903
24.9553
24.2944
23.6168
22.9285
22.2334
21.5339
20.8316
20.1277
19.4226
18.7167
18.0103
17.3037
16.597
15.8906
15.1845
14.4785
13.7726
13.0667
12.3607
11.6547
10.9485
10.2423
9.53596
8.82964
8.1233
7.41694
6.71057
6.0042
5.29782
4.59145
3.88507
3.17869
2.47232
1.76594
1.05956
0.353184
27.0307
26.6222
26.1132
25.537
24.9165
24.2666
23.5972
22.9148
22.2239
21.5274
20.8273
20.1248
19.4207
18.7155
18.0096
17.3033
16.5969
15.8906
15.1845
14.4786
13.7726
13.0667
12.3607
11.6546
10.9484
10.2422
9.53593
8.82961
8.12327
7.41692
6.71056
6.00419
5.29782
4.59144
3.88507
3.17869
2.47232
1.76594
1.05956
0.353184
26.8834
26.5072
26.0266
25.4734
24.8706
24.234
23.5743
22.8989
22.213
21.52
20.8223
20.1214
19.4184
18.714
18.0087
17.3028
16.5967
15.8906
15.1846
14.4786
13.7726
13.0667
12.3606
11.6546
10.9484
10.2422
9.53588
8.82958
8.12325
7.4169
6.71055
6.00418
5.29781
4.59144
3.88507
3.17869
2.47232
1.76594
1.05956
0.353184
26.718
26.3807
25.933
25.4056
24.8222
24.1999
23.5505
22.8825
22.2018
21.5124
20.8172
20.118
19.4162
18.7126
18.0078
17.3024
16.5965
15.8906
15.1846
14.4786
13.7726
13.0666
12.3606
11.6545
10.9483
10.2421
9.53584
8.82955
8.12322
7.41688
6.71053
6.00417
5.29781
4.59143
3.88506
3.17869
2.47231
1.76594
1.05956
0.353184
26.5484
26.2545
25.8417
25.3407
24.7767
24.1682
23.5287
22.8676
22.1916
21.5056
20.8126
20.1149
19.4142
18.7113
18.0071
17.302
16.5964
15.8905
15.1846
14.4786
13.7726
13.0666
12.3606
11.6544
10.9483
10.2421
9.53581
8.82952
8.1232
7.41687
6.71052
6.00416
5.2978
4.59143
3.88506
3.17869
2.47231
1.76594
1.05956
0.353184
26.3924
26.143
25.7635
25.2865
24.7393
24.1427
23.5113
22.8558
22.1838
21.5003
20.8091
20.1127
19.4127
18.7104
18.0065
17.3016
16.5962
15.8905
15.1846
14.4786
13.7726
13.0666
12.3605
11.6544
10.9482
10.242
9.53578
8.8295
8.12319
7.41686
6.71051
6.00416
5.2978
4.59143
3.88506
3.17869
2.47231
1.76594
1.05956
0.353185
26.2723
26.0624
25.7097
25.2507
24.7156
24.1269
23.5009
22.849
22.1793
21.4974
20.8072
20.1115
19.4119
18.7099
18.0062
17.3015
16.5962
15.8905
15.1846
14.4786
13.7726
13.0666
12.3605
11.6544
10.9482
10.242
9.53577
8.82949
8.12318
7.41685
6.71051
6.00415
5.29779
4.59143
3.88506
3.17869
2.47231
1.76594
1.05956
0.353186
26.2138
26.0311
25.693
25.2419
24.711
24.1246
23.4998
22.8486
22.1792
21.4975
20.8074
20.1116
19.4121
18.71
18.0063
17.3016
16.5962
15.8905
15.1846
14.4787
13.7727
13.0666
12.3605
11.6544
10.9482
10.242
9.53577
8.82949
8.12318
7.41685
6.71051
6.00415
5.29779
4.59143
3.88506
3.17869
2.47231
1.76594
1.05956
0.353187
26.2722
26.0622
25.7096
25.2506
24.7155
24.1268
23.5007
22.8488
22.1791
21.4972
20.807
20.1112
19.4116
18.7096
18.0059
17.3012
16.5958
15.8902
15.1843
14.4784
13.7724
13.0664
12.3604
11.6543
10.9481
10.2419
9.5357
8.82943
8.12314
7.41682
6.71049
6.00414
5.29778
4.59142
3.88505
3.17868
2.47231
1.76594
1.05957
0.35319
26.3229
26.0732
25.7036
25.2389
24.7032
24.1158
23.4916
22.8416
22.1736
21.493
20.8039
20.1089
19.41
18.7084
18.0051
17.3006
16.5955
15.8899
15.1841
14.4783
13.7723
13.0663
12.3603
11.6542
10.9481
10.2419
9.53568
8.82942
8.12312
7.41681
6.71048
6.00413
5.29778
4.59142
3.88505
3.17868
2.47231
1.76594
1.05957
0.35319
26.4431
26.1443
25.7449
25.2625
24.7163
24.1229
23.4953
22.8433
22.1742
21.4931
20.8037
20.1086
19.4097
18.7081
18.0048
17.3004
16.5953
15.8898
15.184
14.4782
13.7723
13.0663
12.3603
11.6542
10.9481
10.2419
9.53567
8.82941
8.12312
7.41681
6.71048
6.00413
5.29778
4.59142
3.88505
3.17868
2.47231
1.76594
1.05957
0.35319
26.6049
26.2523
25.8166
25.3098
24.7473
24.1431
23.5083
22.8516
22.1794
21.4963
20.8057
20.1098
19.4104
18.7085
18.005
17.3004
16.5952
15.8897
15.184
14.4781
13.7722
13.0663
12.3603
11.6542
10.9481
10.2419
9.53569
8.82942
8.12313
7.41681
6.71048
6.00413
5.29778
4.59142
3.88505
3.17868
2.47231
1.76594
1.05957
0.35319
26.7829
26.3778
25.9045
25.3707
24.7891
24.1714
23.5274
22.8644
22.1879
21.5019
20.8093
20.1121
19.4118
18.7094
18.0055
17.3007
16.5953
15.8897
15.1839
14.4781
13.7722
13.0663
12.3603
11.6542
10.9481
10.2419
9.53571
8.82944
8.12314
7.41682
6.71049
6.00414
5.29778
4.59142
3.88505
3.17868
2.47231
1.76594
1.05957
0.353191
26.9568
26.505
25.9963
25.4361
24.8351
24.2034
23.5494
22.8793
22.1979
21.5086
20.8137
20.115
19.4137
18.7106
18.0062
17.3011
16.5955
15.8897
15.1839
14.4781
13.7722
13.0663
12.3604
11.6543
10.9482
10.242
9.53575
8.82947
8.12317
7.41684
6.7105
6.00415
5.29779
4.59142
3.88506
3.17869
2.47231
1.76594
1.05957
0.353191
27.1116
26.6211
26.082
25.4983
24.8795
24.2348
23.5712
22.8944
22.2081
21.5155
20.8183
20.1181
19.4157
18.7119
18.007
17.3015
16.5957
15.8898
15.1839
14.4781
13.7723
13.0664
12.3604
11.6544
10.9482
10.242
9.53578
8.8295
8.12319
7.41686
6.71051
6.00416
5.29779
4.59143
3.88506
3.17869
2.47232
1.76594
1.05957
0.353191
27.2363
26.7162
26.1533
25.5507
24.9174
24.2618
23.5902
22.9075
22.2172
21.5216
20.8224
20.1208
19.4175
18.713
18.0077
17.3019
16.5958
15.8898
15.1839
14.4781
13.7723
13.0664
12.3605
11.6544
10.9483
10.2421
9.53582
8.82953
8.12321
7.41687
6.71052
6.00416
5.2978
4.59143
3.88506
3.17869
2.47232
1.76594
1.05957
0.353191
27.3235
26.7834
26.2041
25.5884
24.9449
24.2815
23.6041
22.9172
22.2238
21.5261
20.8255
20.1229
19.4189
18.7139
18.0082
17.3022
16.5959
15.8898
15.1839
14.4781
13.7723
13.0664
12.3605
11.6545
10.9483
10.2421
9.53585
8.82956
8.12323
7.41689
6.71053
6.00417
5.2978
4.59144
3.88506
3.17869
2.47232
1.76595
1.05957
0.353191
27.3682
26.8182
26.2306
25.6081
24.9593
24.2919
23.6115
22.9224
22.2274
21.5286
20.8272
20.124
19.4197
18.7145
18.0086
17.3023
16.596
15.8899
15.1839
14.4781
13.7723
13.0665
12.3605
11.6545
10.9484
10.2421
9.53588
8.82957
8.12324
7.4169
6.71054
6.00418
5.29781
4.59144
3.88507
3.17869
2.47232
1.76595
1.05957
0.353191
27.3682
26.8182
26.2306
25.6082
24.9594
24.2919
23.6115
22.9224
22.2274
21.5286
20.8272
20.1241
19.4197
18.7145
18.0086
17.3024
16.5961
15.8899
15.1839
14.4781
13.7723
13.0665
12.3605
11.6545
10.9484
10.2421
9.53588
8.82958
8.12325
7.4169
6.71054
6.00418
5.29781
4.59144
3.88507
3.17869
2.47232
1.76595
1.05957
0.353191
27.3235
26.7835
26.2042
25.5885
24.945
24.2815
23.6042
22.9173
22.2239
21.5262
20.8256
20.123
19.419
18.714
18.0083
17.3023
16.596
15.8899
15.184
14.4782
13.7724
13.0665
12.3605
11.6545
10.9484
10.2421
9.53588
8.82957
8.12324
7.4169
6.71054
6.00418
5.29781
4.59144
3.88507
3.17869
2.47232
1.76595
1.05957
0.353191
27.2364
26.7163
26.1533
25.5508
24.9175
24.2618
23.5903
22.9076
22.2173
21.5217
20.8225
20.121
19.4177
18.7132
18.0079
17.302
16.596
15.89
15.184
14.4782
13.7724
13.0665
12.3605
11.6545
10.9483
10.2421
9.53586
8.82956
8.12323
7.41689
6.71054
6.00417
5.29781
4.59144
3.88506
3.17869
2.47232
1.76595
1.05957
0.35319
27.1116
26.6211
26.0821
25.4984
24.8796
24.2349
23.5713
22.8945
22.2083
21.5156
20.8185
20.1183
19.4159
18.7121
18.0072
17.3017
16.5959
15.89
15.1841
14.4782
13.7724
13.0665
12.3605
11.6544
10.9483
10.2421
9.53583
8.82954
8.12322
7.41688
6.71053
6.00417
5.2978
4.59143
3.88506
3.17869
2.47232
1.76595
1.05957
0.35319
26.9569
26.5051
25.9964
25.4362
24.8352
24.2035
23.5495
22.8795
22.1981
21.5087
20.8139
20.1152
19.4139
18.7108
18.0065
17.3013
16.5957
15.89
15.1841
14.4783
13.7724
13.0665
12.3605
11.6544
10.9483
10.2421
9.5358
8.82951
8.1232
7.41687
6.71052
6.00416
5.2978
4.59143
3.88506
3.17869
2.47232
1.76595
1.05957
0.353189
26.783
26.3779
25.9046
25.3708
24.7892
24.1716
23.5275
22.8645
22.188
21.502
20.8095
20.1123
19.4121
18.7097
18.0058
17.301
16.5956
15.89
15.1842
14.4783
13.7724
13.0665
12.3605
11.6544
10.9482
10.242
9.53577
8.82949
8.12318
7.41685
6.71051
6.00416
5.29779
4.59143
3.88506
3.17869
2.47232
1.76594
1.05957
0.353189
26.605
26.2524
25.8167
25.3099
24.7474
24.1432
23.5084
22.8518
22.1796
21.4965
20.8059
20.1101
19.4107
18.7088
18.0053
17.3007
16.5955
15.89
15.1842
14.4784
13.7725
13.0665
12.3604
11.6543
10.9482
10.242
9.53575
8.82948
8.12317
7.41684
6.7105
6.00415
5.29779
4.59143
3.88506
3.17869
2.47231
1.76594
1.05957
0.353188
26.4432
26.1444
25.745
25.2626
24.7164
24.123
23.4954
22.8435
22.1743
21.4933
20.8039
20.1089
19.41
18.7084
18.0051
17.3007
16.5956
15.8901
15.1843
14.4784
13.7725
13.0665
12.3604
11.6543
10.9482
10.242
9.53574
8.82947
8.12316
7.41684
6.7105
6.00415
5.29779
4.59142
3.88506
3.17868
2.47231
1.76594
1.05957
0.353187
26.3231
26.0733
25.7037
25.2391
24.7033
24.1159
23.4918
22.8418
22.1737
21.4932
20.8041
20.1092
19.4103
18.7087
18.0054
17.3009
16.5958
15.8902
15.1844
14.4785
13.7726
13.0665
12.3605
11.6544
10.9482
10.242
9.53575
8.82947
8.12316
7.41684
6.7105
6.00415
5.29779
4.59142
3.88506
3.17868
2.47231
1.76594
1.05957
0.353187
26.2723
26.0624
25.7097
25.2507
24.7156
24.1269
23.5009
22.849
22.1793
21.4974
20.8072
20.1114
19.4119
18.7099
18.0062
17.3015
16.5962
15.8905
15.1846
14.4786
13.7726
13.0666
12.3605
11.6544
10.9482
10.242
9.53576
8.82948
8.12318
7.41685
6.71051
6.00415
5.29779
4.59143
3.88506
3.17869
2.47231
1.76594
1.05956
0.353188
26.3923
26.1429
25.7634
25.2864
24.7392
24.1425
23.5111
22.8557
22.1836
21.5001
20.8089
20.1124
19.4124
18.71
18.0062
17.3013
16.5959
15.8902
15.1843
14.4784
13.7724
13.0664
12.3604
11.6543
10.9481
10.2419
9.53571
8.82944
8.12315
7.41683
6.71049
6.00414
5.29778
4.59142
3.88505
3.17868
2.47231
1.76594
1.05957
0.35319
26.4431
26.1443
25.7449
25.2625
24.7163
24.1229
23.4953
22.8433
22.1742
21.4931
20.8037
20.1086
19.4097
18.7081
18.0048
17.3004
16.5953
15.8898
15.184
14.4782
13.7723
13.0663
12.3603
11.6542
10.9481
10.2419
9.53567
8.82941
8.12312
7.41681
6.71048
6.00413
5.29778
4.59142
3.88505
3.17868
2.47231
1.76594
1.05957
0.35319
26.5637
26.2105
25.7784
25.2778
24.7219
24.1236
23.4937
22.8409
22.1716
21.4908
20.8017
20.107
19.4084
18.7072
18.0041
17.2998
16.5949
15.8895
15.1838
14.478
13.7722
13.0662
12.3602
11.6542
10.948
10.2419
9.53565
8.8294
8.12311
7.4168
6.71047
6.00412
5.29777
4.59141
3.88505
3.17868
2.47231
1.76594
1.05956
0.353189
26.7293
26.3171
25.8459
25.3199
24.7478
24.1393
23.503
22.8462
22.1746
21.4922
20.8024
20.1072
19.4084
18.707
18.0039
17.2996
16.5947
15.8893
15.1837
14.4779
13.7721
13.0662
12.3602
11.6542
10.948
10.2419
9.53565
8.8294
8.12311
7.4168
6.71047
6.00412
5.29777
4.59141
3.88505
3.17868
2.47231
1.76594
1.05956
0.35319
26.9132
26.4436
25.932
25.3779
24.7864
24.1647
23.5196
22.8569
22.1813
21.4964
20.8049
20.1088
19.4093
18.7075
18.0041
17.2997
16.5946
15.8892
15.1836
14.4779
13.7721
13.0662
12.3602
11.6542
10.9481
10.2419
9.53567
8.82941
8.12312
7.4168
6.71047
6.00412
5.29777
4.59141
3.88504
3.17868
2.47231
1.76593
1.05956
0.353189
27.0939
26.5729
26.0235
25.4418
24.8305
24.1948
23.5398
22.8704
22.1902
21.5022
20.8086
20.1111
19.4107
18.7084
18.0046
17.2999
16.5946
15.8891
15.1835
14.4778
13.772
13.0662
12.3602
11.6542
10.9481
10.2419
9.53569
8.82943
8.12313
7.41681
6.71048
6.00413
5.29777
4.59141
3.88505
3.17868
2.47231
1.76593
1.05956
0.353189
27.2552
26.6914
26.1094
25.5032
24.8738
24.2249
23.5605
22.8844
22.1995
21.5084
20.8127
20.1137
19.4125
18.7094
18.0052
17.3001
16.5947
15.8891
15.1834
14.4778
13.7721
13.0662
12.3603
11.6543
10.9481
10.242
9.53573
8.82945
8.12315
7.41683
6.71049
6.00414
5.29778
4.59141
3.88505
3.17868
2.47231
1.76593
1.05956
0.353189
27.3854
26.7887
26.1812
25.5553
24.911
24.2511
23.5787
22.8968
22.208
21.514
20.8164
20.1162
19.4141
18.7105
18.0058
17.3004
16.5947
15.889
15.1834
14.4778
13.7721
13.0663
12.3603
11.6543
10.9482
10.242
9.53576
8.82948
8.12317
7.41684
6.7105
6.00414
5.29778
4.59142
3.88505
3.17868
2.47231
1.76593
1.05956
0.353189
27.4763
26.8575
26.2325
25.5929
24.9382
24.2704
23.5922
22.9061
22.2143
21.5183
20.8193
20.1181
19.4154
18.7113
18.0062
17.3006
16.5948
15.889
15.1834
14.4778
13.7721
13.0663
12.3604
11.6544
10.9482
10.242
9.53579
8.8295
8.12318
7.41685
6.7105
6.00415
5.29779
4.59142
3.88505
3.17868
2.47231
1.76593
1.05956
0.353189
27.5229
26.8931
26.2592
25.6126
24.9524
24.2805
23.5993
22.9111
22.2177
21.5206
20.8208
20.1192
19.4161
18.7117
18.0065
17.3008
16.5948
15.889
15.1834
14.4778
13.7721
13.0663
12.3604
11.6544
10.9483
10.2421
9.5358
8.82951
8.1232
7.41686
6.71051
6.00415
5.29779
4.59142
3.88505
3.17868
2.47231
1.76593
1.05956
0.353189
27.5229
26.8931
26.2592
25.6126
24.9525
24.2805
23.5993
22.9111
22.2177
21.5206
20.8208
20.1192
19.4161
18.7118
18.0065
17.3008
16.5949
15.889
15.1834
14.4778
13.7721
13.0664
12.3604
11.6544
10.9483
10.2421
9.53581
8.82952
8.1232
7.41686
6.71051
6.00415
5.29779
4.59142
3.88505
3.17868
2.47231
1.76593
1.05956
0.353189
27.4763
26.8576
26.2325
25.593
24.9382
24.2704
23.5922
22.9062
22.2143
21.5183
20.8193
20.1182
19.4155
18.7114
18.0063
17.3007
16.5949
15.8891
15.1834
14.4778
13.7722
13.0664
12.3604
11.6544
10.9483
10.2421
9.53581
8.82952
8.1232
7.41686
6.71051
6.00415
5.29779
4.59142
3.88505
3.17868
2.47231
1.76593
1.05956
0.353189
27.3854
26.7888
26.1812
25.5554
24.9111
24.2512
23.5788
22.8969
22.2081
21.5141
20.8165
20.1163
19.4142
18.7106
18.0059
17.3006
16.5949
15.8892
15.1835
14.4779
13.7722
13.0664
12.3604
11.6544
10.9482
10.242
9.53579
8.8295
8.12319
7.41686
6.71051
6.00415
5.29779
4.59142
3.88505
3.17868
2.47231
1.76593
1.05956
0.353189
27.2553
26.6914
26.1095
25.5033
24.8739
24.225
23.5606
22.8845
22.1997
21.5085
20.8128
20.1139
19.4126
18.7096
18.0054
17.3003
16.5949
15.8893
15.1836
14.4779
13.7722
13.0663
12.3604
11.6543
10.9482
10.242
9.53577
8.82949
8.12318
7.41685
6.7105
6.00415
5.29779
4.59142
3.88505
3.17868
2.47231
1.76593
1.05956
0.353189
27.094
26.573
26.0236
25.4419
24.8306
24.1949
23.5399
22.8705
22.1903
21.5023
20.8088
20.1113
19.411
18.7086
18.0048
17.3001
16.5949
15.8893
15.1837
14.478
13.7722
13.0663
12.3604
11.6543
10.9482
10.242
9.53575
8.82947
8.12317
7.41684
6.7105
6.00414
5.29778
4.59142
3.88505
3.17868
2.47231
1.76593
1.05956
0.353189
26.9133
26.4437
25.9321
25.378
24.7865
24.1648
23.5197
22.857
22.1815
21.4966
20.8051
20.109
19.4095
18.7078
18.0044
17.2999
16.5949
15.8894
15.1838
14.4781
13.7723
13.0663
12.3604
11.6543
10.9482
10.242
9.53573
8.82946
8.12316
7.41683
6.71049
6.00414
5.29778
4.59142
3.88505
3.17868
2.47231
1.76593
1.05956
0.353189
26.7294
26.3172
25.846
25.32
24.7479
24.1394
23.5031
22.8464
22.1747
21.4924
20.8026
20.1075
19.4087
18.7073
18.0042
17.2999
16.595
15.8896
15.1839
14.4782
13.7723
13.0664
12.3604
11.6543
10.9481
10.242
9.53572
8.82945
8.12315
7.41683
6.71049
6.00414
5.29778
4.59142
3.88505
3.17868
2.47231
1.76593
1.05956
0.353189
26.5638
26.2106
25.7785
25.2779
24.722
24.1237
23.4938
22.8411
22.1718
21.491
20.8019
20.1073
19.4087
18.7075
18.0044
17.3002
16.5952
15.8898
15.1841
14.4783
13.7724
13.0664
12.3604
11.6543
10.9482
10.242
9.53572
8.82945
8.12315
7.41683
6.71049
6.00414
5.29778
4.59142
3.88505
3.17868
2.47231
1.76594
1.05956
0.353189
26.4432
26.1444
25.745
25.2626
24.7164
24.123
23.4954
22.8435
22.1743
21.4933
20.8039
20.1089
19.41
18.7084
18.0051
17.3007
16.5956
15.8901
15.1843
14.4784
13.7725
13.0665
12.3604
11.6543
10.9482
10.242
9.53574
8.82946
8.12316
7.41684
6.7105
6.00415
5.29779
4.59142
3.88505
3.17868
2.47231
1.76594
1.05956
0.353188
26.3924
26.143
25.7635
25.2865
24.7393
24.1426
23.5113
22.8558
22.1838
21.5003
20.8091
20.1126
19.4127
18.7103
18.0065
17.3016
16.5962
15.8905
15.1846
14.4786
13.7726
13.0666
12.3605
11.6544
10.9482
10.242
9.53577
8.82949
8.12318
7.41685
6.71051
6.00415
5.29779
4.59143
3.88506
3.17868
2.47231
1.76594
1.05956
0.353188
26.5483
26.2544
25.8416
25.3406
24.7766
24.1681
23.5285
22.8674
22.1915
21.5053
20.8123
20.1147
19.4139
18.711
18.0067
17.3016
16.596
15.8902
15.1843
14.4784
13.7724
13.0664
12.3604
11.6543
10.9482
10.242
9.53574
8.82946
8.12316
7.41684
6.7105
6.00415
5.29779
4.59142
3.88506
3.17869
2.47231
1.76594
1.05957
0.35319
26.6049
26.2523
25.8166
25.3098
24.7473
24.1431
23.5083
22.8516
22.1794
21.4963
20.8057
20.1098
19.4104
18.7085
18.005
17.3004
16.5952
15.8897
15.184
14.4781
13.7722
13.0663
12.3603
11.6542
10.9481
10.2419
9.53569
8.82942
8.12313
7.41681
6.71048
6.00413
5.29778
4.59142
3.88505
3.17868
2.47231
1.76594
1.05957
0.35319
26.7293
26.3171
25.8459
25.3199
24.7478
24.1393
23.503
22.8462
22.1746
21.4922
20.8024
20.1072
19.4084
18.707
18.0039
17.2996
16.5947
15.8893
15.1837
14.4779
13.7721
13.0662
12.3602
11.6542
10.948
10.2419
9.53565
8.8294
8.12311
7.4168
6.71047