# vtk DataFile Version 2.0
I need something to put here
ASCII

DATASET STRUCTURED_GRID
DIMENSIONS 41 21 21
POINTS 18081 float
0.000000 0.000000 0.000000
0.100000 0.000000 0.000000
0.200000 0.000000 0.000000
0.300000 0.000000 0.000000
0.400000 0.000000 0.000000
0.500000 0.000000 0.000000
0.600000 0.000000 0.000000
0.700000 0.000000 0.000000
0.800000 0.000000 0.000000
0.900000 0.000000 0.000000
1.000000 0.000000 0.000000
1.100000 0.000000 0.000000
1.200000 0.000000 0.000000
1.300000 0.000000 0.000000
1.400000 0.000000 0.000000
1.500000 0.000000 0.000000
1.600000 0.000000 0.000000
1.700000 0.000000 0.000000
1.800000 0.000000 0.000000
1.900000 0.000000 0.000000
2.000000 0.000000 0.000000
2.100000 0.000000 0.000000
2.200000 0.000000 0.000000
2.300000 0.000000 0.000000
2.400000 0.000000 0.000000
2.500000 0.000000 0.000000
2.600000 0.000000 0.000000
2.700000 0.000000 0.000000
2.800000 0.000000 0.000000
2.900000 0.000000 0.000000
3.000000 0.000000 0.000000
3.100000 0.000000 0.000000
3.200000 0.000000 0.000000
3.300000 0.000000 0.000000
3.400000 0.000000 0.000000
3.500000 0.000000 0.000000
3.600000 0.000000 0.000000
3.700000 0.000000 0.000000
3.800000 0.000000 0.000000
3.900000 0.000000 0.000000
4.000000 0.000000 0.000000
0.000000 0.100000 0.000000
0.100000 0.100000 0.000000
0.200000 0.100000 0.000000
0.300000 0.100000 0.000000
0.400000 0.100000 0.000000
0.500000 0.100000 0.000000
0.600000 0.100000 0.000000
0.700000 0.100000 0.000000
0.800000 0.100000 0.000000
0.900000 0.100000 0.000000
1.000000 0.100000 0.000000
1.100000 0.100000 0.000000
1.200000 0.100000 0.000000
1.300000 0.100000 0.000000
1.400000 0.100000 0.000000
1.500000 0.100000 0.000000
1.600000 0.100000 0.000000
1.700000 0.100000 0.000000
1.800000 0.100000 0.000000
1.900000 0.100000 0.000000
2.000000 0.100000 0.000000
2.100000 0.100000 0.000000
2.200000 0.100000 0.000000
2.300000 0.100000 0.000000
2.400000 0.100000 0.000000
2.500000 0.100000 0.000000
2.600000 0.100000 0.000000
2.700000 0.100000 0.000000
2.800000 0.100000 0.000000
2.900000 0.100000 0.000000
3.000000 0.100000 0.000000
3.100000 0.100000 0.000000
3.200000 0.100000 0.000000
3.300000 0.100000 0.000000
3.400000 0.100000 0.000000
3.500000 0.100000 0.000000
3.600000 0.100000 0.000000
3.700000 0.100000 0.000000
3.800000 0.100000 0.000000
3.900000 0.100000 0.000000
4.000000 0.100000 0.000000
0.000000 0.200000 0.000000
0.100000 0.200000 0.000000
0.200000 0.200000 0.000000
0.300000 0.200000 0.000000
0.400000 0.200000 0.000000
0.500000 0.200000 0.000000
0.600000 0.200000 0.000000
0.700000 0.200000 0.000000
0.800000 0.200000 0.000000
0.900000 0.200000 0.000000
1.000000 0.200000 0.000000
1.100000 0.200000 0.000000
1.200000 0.200000 0.000000
1.300000 0.200000 0.000000
1.400000 0.200000 0.000000
1.500000 0.200000 0.000000
1.600000 0.200000 0.000000
1.700000 0.200000 0.000000
1.800000 0.200000 0.000000
1.900000 0.200000 0.000000
2.000000 0.200000 0.000000
2.100000 0.200000 0.000000
2.200000 0.200000 0.000000
2.300000 0.200000 0.000000
2.400000 0.200000 0.000000
2.500000 0.200000 0.000000
2.600000 0.200000 0.000000
2.700000 0.200000 0.000000
2.800000 0.200000 0.000000
2.900000 0.200000 0.000000
3.000000 0.200000 0.000000
3.100000 0.200000 0.000000
3.200000 0.200000 0.000000
3.300000 0.200000 0.000000
3.400000 0.200000 0.000000
3.500000 0.200000 0.000000
3.600000 0.200000 0.000000
3.700000 0.200000 0.000000
3.800000 0.200000 0.000000
3.900000 0.200000 0.000000
4.000000 0.200000 0.000000
0.000000 0.300000 0.000000
0.100000 0.300000 0.000000
0.200000 0.300000 0.000000
0.300000 0.300000 0.000000
0.400000 0.300000 0.000000
0.500000 0.300000 0.000000
0.600000 0.300000 0.000000
0.700000 0.300000 0.000000
0.800000 0.300000 0.000000
0.900000 0.300000 0.000000
1.000000 0.300000 0.000000
1.100000 0.300000 0.000000
1.200000 0.300000 0.000000
1.300000 0.300000 0.000000
1.400000 0.300000 0.000000
1.500000 0.300000 0.000000
1.600000 0.300000 0.000000
1.700000 0.300000 0.000000
1.800000 0.300000 0.000000
1.900000 0.300000 0.000000
2.000000 0.300000 0.000000
2.100000 0.300000 0.000000
2.200000 0.300000 0.000000
2.300000 0.300000 0.000000
2.400000 0.300000 0.000000
2.500000 0.300000 0.000000
2.600000 0.300000 0.000000
2.700000 0.300000 0.000000
2.800000 0.300000 0.000000
2.900000 0.300000 0.000000
3.000000 0.300000 0.000000
3.100000 0.300000 0.000000
3.200000 0.300000 0.000000
3.300000 0.300000 0.000000
3.400000 0.300000 0.000000
3.500000 0.300000 0.000000
3.600000 0.300000 0.000000
3.700000 0.300000 0.000000
3.800000 0.300000 0.000000
3.900000 0.300000 0.000000
4.000000 0.300000 0.000000
0.000000 0.400000 0.000000
0.100000 0.400000 0.000000
0.200000 0.400000 0.000000
0.300000 0.400000 0.000000
0.400000 0.400000 0.000000
0.500000 0.400000 0.000000
0.600000 0.400000 0.000000
0.700000 0.400000 0.000000
0.800000 0.400000 0.000000
0.900000 0.400000 0.000000
1.000000 0.400000 0.000000
1.100000 0.400000 0.000000
1.200000 0.400000 0.000000
1.300000 0.400000 0.000000
1.400000 0.400000 0.000000
1.500000 0.400000 0.000000
1.600000 0.400000 0.000000
1.700000 0.400000 0.000000
1.800000 0.400000 0.000000
1.900000 0.400000 0.000000
2.000000 0.400000 0.000000
2.100000 0.400000 0.000000
2.200000 0.400000 0.000000
2.300000 0.400000 0.000000
2.400000 0.400000 0.000000
2.500000 0.400000 0.000000
2.600000 0.400000 0.000000
2.700000 0.400000 0.000000
2.800000 0.400000 0.000000
2.900000 0.400000 0.000000
3.000000 0.400000 0.000000
3.100000 0.400000 0.000000
3.200000 0.400000 0.000000
3.300000 0.400000 0.000000
3.400000 0.400000 0.000000
3.500000 0.400000 0.000000
3.600000 0.400000 0.000000
3.700000 0.400000 0.000000
3.800000 0.400000 0.000000
3.900000 0.400000 0.000000
4.000000 0.400000 0.000000
0.000000 0.500000 0.000000
0.100000 0.500000 0.000000
0.200000 0.500000 0.000000
0.300000 0.500000 0.000000
0.400000 0.500000 0.000000
0.500000 0.500000 0.000000
0.600000 0.500000 0.000000
0.700000 0.500000 0.000000
0.800000 0.500000 0.000000
0.900000 0.500000 0.000000
1.000000 0.500000 0.000000
1.100000 0.500000 0.000000
1.200000 0.500000 0.000000
1.300000 0.500000 0.000000
1.400000 0.500000 0.000000
1.500000 0.500000 0.000000
1.600000 0.500000 0.000000
1.700000 0.500000 0.000000
1.800000 0.500000 0.000000
1.900000 0.500000 0.000000
2.000000 0.500000 0.000000
2.100000 0.500000 0.000000
2.200000 0.500000 0.000000
2.300000 0.500000 0.000000
2.400000 0.500000 0.000000
2.500000 0.500000 0.000000
2.600000 0.500000 0.000000
2.700000 0.500000 0.000000
2.800000 0.500000 0.000000
2.900000 0.500000 0.000000
3.000000 0.500000 0.000000
3.100000 0.500000 0.000000
3.200000 0.500000 0.000000
3.300000 0.500000 0.000000
3.400000 0.500000 0.000000
3.500000 0.500000 0.000000
3.600000 0.500000 0.000000
3.700000 0.500000 0.000000
3.800000 0.500000 0.000000
3.900000 0.500000 0.000000
4.000000 0.500000 0.000000
0.000000 0.600000 0.000000
0.100000 0.600000 0.000000
0.200000 0.600000 0.000000
0.300000 0.600000 0.000000
0.400000 0.600000 0.000000
0.500000 0.600000 0.000000
0.600000 0.600000 0.000000
0.700000 0.600000 0.000000
0.800000 0.600000 0.000000
0.900000 0.600000 0.000000
1.000000 0.600000 0.000000
1.100000 0.600000 0.000000
1.200000 0.600000 0.000000
1.300000 0.600000 0.000000
1.400000 0.600000 0.000000
1.500000 0.600000 0.000000
1.600000 0.600000 0.000000
1.700000 0.600000 0.000000
1.800000 0.600000 0.000000
1.900000 0.600000 0.000000
2.000000 0.600000 0.000000
2.100000 0.600000 0.000000
2.200000 0.600000 0.000000
2.300000 0.600000 0.000000
2.400000 0.600000 0.000000
2.500000 0.600000 0.000000
2.600000 0.600000 0.000000
2.700000 0.600000 0.000000
2.800000 0.600000 0.000000
2.900000 0.600000 0.000000
3.000000 0.600000 0.000000
3.100000 0.600000 0.000000
3.200000 0.600000 0.000000
3.300000 0.600000 0.000000
3.400000 0.600000 0.000000
3.500000 0.600000 0.000000
3.600000 0.600000 0.000000
3.700000 0.600000 0.000000
3.800000 0.600000 0.000000
3.900000 0.600000 0.000000
4.000000 0.600000 0.000000
0.000000 0.700000 0.000000
0.100000 0.700000 0.000000
0.200000 0.700000 0.000000
0.300000 0.700000 0.000000
0.400000 0.700000 0.000000
0.500000 0.700000 0.000000
0.600000 0.700000 0.000000
0.700000 0.700000 0.000000
0.800000 0.700000 0.000000
0.900000 0.700000 0.000000
1.000000 0.700000 0.000000
1.100000 0.700000 0.000000
1.200000 0.700000 0.000000
1.300000 0.700000 0.000000
1.400000 0.700000 0.000000
1.500000 0.700000 0.000000
1.600000 0.700000 0.000000
1.700000 0.700000 0.000000
1.800000 0.700000 0.000000
1.900000 0.700000 0.000000
2.000000 0.700000 0.000000
2.100000 0.700000 0.000000
2.200000 0.700000 0.000000
2.300000 0.700000 0.000000
2.400000 0.700000 0.000000
2.500000 0.700000 0.000000
2.600000 0.700000 0.000000
2.700000 0.700000 0.000000
2.800000 0.700000 0.000000
2.900000 0.700000 0.000000
3.000000 0.700000 0.000000
3.100000 0.700000 0.000000
3.200000 0.700000 0.000000
3.300000 0.700000 0.000000
3.400000 0.700000 0.000000
3.500000 0.700000 0.000000
3.600000 0.700000 0.000000
3.700000 0.700000 0.000000
3.800000 0.700000 0.000000
3.900000 0.700000 0.000000
4.000000 0.700000 0.000000
0.000000 0.800000 0.000000
0.100000 0.800000 0.000000
0.200000 0.800000 0.000000
0.300000 0.800000 0.000000
0.400000 0.800000 0.000000
0.500000 0.800000 0.000000
0.600000 0.800000 0.000000
0.700000 0.800000 0.000000
0.800000 0.800000 0.000000
0.900000 0.800000 0.000000
1.000000 0.800000 0.000000
1.100000 0.800000 0.000000
1.200000 0.800000 0.000000
1.300000 0.800000 0.000000
1.400000 0.800000 0.000000
1.500000 0.800000 0.000000
1.600000 0.800000 0.000000
1.700000 0.800000 0.000000
1.800000 0.800000 0.000000
1.900000 0.800000 0.000000
2.000000 0.800000 0.000000
2.100000 0.800000 0.000000
2.200000 0.800000 0.000000
2.300000 0.800000 0.000000
2.400000 0.800000 0.000000
2.500000 0.800000 0.000000
2.600000 0.800000 0.000000
2.700000 0.800000 0.000000
2.800000 0.800000 0.000000
2.900000 0.800000 0.000000
3.000000 0.800000 0.000000
3.100000 0.800000 0.000000
3.200000 0.800000 0.000000
3.300000 0.800000 0.000000
3.400000 0.800000 0.000000
3.500000 0.800000 0.000000
3.600000 0.800000 0.000000
[...]
CELL_DATA 16000
SCALARS pressure float 1
LOOKUP_TABLE default
26.3034
26.1207
25.7827
25.3317
24.8014
24.2158
23.5923
22.9427
22.2755
21.5963
20.9088
20.2153
19.5173
18.8154
18.1099
17.4011
16.6892
15.9748
15.2586
14.5415
13.8244
13.1079
12.3926
11.6786
10.966
10.2548
9.54472
8.8356
8.12724
7.41947
6.71214
6.00512
5.29833
4.59169
3.88516
3.17869
2.47227
1.76588
1.0595
0.353153
26.362
26.152
25.7994
25.3406
24.8059
24.2181
23.5933
22.9431
22.2755
21.5961
20.9086
20.2152
19.5172
18.8154
18.1099
17.4011
16.6892
15.9748
15.2586
14.5415
13.8243
13.1078
12.3925
11.6785
10.966
10.2548
9.5447
8.83559
8.12724
7.41948
6.71215
6.00513
5.29834
4.5917
3.88517
3.1787
2.47227
1.76588
1.0595
0.353151
26.4821
26.2326
25.8531
25.3762
24.8295
24.2336
23.6035
22.9497
22.2798
21.5989
20.9105
20.2167
19.5186
18.8167
18.1113
17.4024
16.6903
15.9755
15.2589
14.5414
13.8239
13.1073
12.3919
11.6779
10.9654
10.2543
9.5443
8.83529
8.12702
7.41932
6.71204
6.00506
5.29829
4.59167
3.88515
3.17869
2.47227
1.76587
1.0595
0.353146
26.638
26.3439
25.9311
25.4302
24.8666
24.2588
23.6205
22.9611
22.2874
21.604
20.9142
20.2196
19.5212
18.8193
18.1139
17.4048
16.6922
15.9768
15.2595
14.5413
13.8232
13.1062
12.3906
11.6767
10.9643
10.2534
9.54356
8.83471
8.12659
7.41901
6.71182
6.00491
5.29819
4.5916
3.8851
3.17866
2.47225
1.76586
1.05949
0.353141
26.8074
26.4699
26.0221
25.4948
24.9117
24.2901
23.6418
22.9755
22.2971
21.6107
20.919
20.2236
19.5249
18.823
18.1175
17.4082
16.695
15.9787
15.2602
14.541
13.8222
13.1047
12.3889
11.675
10.9628
10.2521
9.54252
8.83391
8.12599
7.41857
6.71151
6.00469
5.29805
4.59151
3.88505
3.17862
2.47223
1.76585
1.05949
0.353138
26.9725
26.5961
26.1154
25.5622
24.9596
24.3236
23.6649
22.9912
22.3077
21.618
20.9244
20.2281
19.5293
18.8275
18.122
17.4123
16.6984
15.9809
15.2611
14.5406
13.8208
13.1027
12.3868
11.6729
10.9609
10.2505
9.54129
8.83296
8.12528
7.41806
6.71115
6.00445
5.29788
4.5914
3.88497
3.17858
2.4722
1.76584
1.05948
0.353136
27.1196
26.7109
26.2016
25.6254
25.0051
24.3557
23.6872
23.0065
22.3181
21.6252
20.9298
20.2327
19.5337
18.8321
18.1267
17.4167
16.702
15.9832
15.2619
14.54
13.8193
13.1006
12.3845
11.6707
10.959
10.2489
9.54
8.83198
8.12455
7.41753
6.71078
6.00419
5.29771
4.59129
3.8849
3.17854
2.47218
1.76582
1.05947
0.353136
27.2383
26.8048
26.2732
25.6784
25.0435
24.383
23.7063
23.0196
22.3271
21.6315
20.9345
20.2368
19.5378
18.8364
18.1311
17.4208
16.7053
15.9853
15.2626
14.5395
13.8178
13.0986
12.3823
11.6686
10.9572
10.2474
9.53883
8.83109
8.12389
7.41706
6.71044
6.00396
5.29755
4.59119
3.88484
3.1785
2.47215
1.76581
1.05947
0.353137
27.3213
26.8712
26.3241
25.7164
25.0712
24.4029
23.7203
23.0293
22.3337
21.6362
20.9381
20.2399
19.541
18.8398
18.1345
17.424
16.7079
15.9869
15.2632
14.539
13.8166
13.097
12.3806
11.6671
10.9558
10.2463
9.53795
8.83042
8.1234
7.41671
6.7102
6.00379
5.29744
4.59111
3.88479
3.17847
2.47214
1.7658
1.05946
0.353138
27.364
26.9055
26.3506
25.7363
25.0859
24.4134
23.7277
23.0344
22.3373
21.6387
20.9401
20.2417
19.5428
18.8417
18.1365
17.4259
16.7094
15.9879
15.2636
14.5388
13.816
13.0962
12.3798
11.6663
10.9551
10.2457
9.5375
8.83008
8.12316
7.41653
6.71008
6.00371
5.29739
4.59108
3.88477
3.17845
2.47213
1.7658
1.05946
0.353138
27.3641
26.9057
26.3508
25.7365
25.086
24.4135
23.7279
23.0347
22.3376
21.639
20.9404
20.242
19.5431
18.842
18.1368
17.4262
16.7097
15.9882
15.2638
14.539
13.8162
13.0964
12.3799
11.6664
10.9552
10.2458
9.53756
8.83013
8.12319
7.41656
6.7101
6.00373
5.2974
4.59109
3.88477
3.17846
2.47213
1.7658
1.05946
0.353138
27.3217
26.8716
26.3246
25.7169
25.0717
24.4034
23.7208
23.0299
22.3344
21.637
20.9389
20.2408
19.5419
18.8407
18.1354
17.4249
16.7087
15.9877
15.2639
14.5396
13.8171
13.0975
12.381
11.6674
10.9561
10.2465
9.53812
8.83055
8.12351
7.41679
6.71026
6.00384
5.29747
4.59114
3.88481
3.17848
2.47214
1.7658
1.05946
0.353137
27.239
26.8055
26.2739
25.6791
25.0443
24.3838
23.7072
23.0207
22.3283
21.6328
20.9359
20.2382
19.5393
18.8379
18.1326
17.4222
16.7066
15.9866
15.2638
14.5405
13.8186
13.0993
12.3829
11.6692
10.9576
10.2478
9.53911
8.8313
8.12407
7.41719
6.71054
6.00403
5.29761
4.59122
3.88486
3.17851
2.47216
1.76581
1.05947
0.353136
27.1205
26.7118
26.2026
25.6264
25.0061
24.3568
23.6885
23.0079
22.3196
21.6269
20.9316
20.2346
19.5357
18.8341
18.1287
17.4186
16.7038
15.9849
15.2634
14.5414
13.8204
13.1016
12.3853
11.6714
10.9596
10.2493
9.54037
8.83227
8.12478
7.41771
6.71091
6.00429
5.29778
4.59133
3.88493
3.17855
2.47219
1.76583
1.05947
0.353136
26.9737
26.5973
26.1165
25.5634
24.9609
24.3249
23.6664
22.9929
22.3095
21.62
20.9266
20.2304
19.5316
18.8299
18.1244
17.4146
16.7006
15.9829
15.2629
14.5422
13.8222
13.1039
12.3878
11.6738
10.9616
10.2511
9.54173
8.83331
8.12555
7.41827
6.7113
6.00456
5.29796
4.59145
3.88501
3.1786
2.47221
1.76584
1.05948
0.353135
26.8086
26.4711
26.0233
25.4961
24.9131
24.2916
23.6434
22.9773
22.2991
21.6129
20.9214
20.2261
19.5276
18.8257
18.1202
17.4108
16.6975
15.9809
15.2623
14.5428
13.8238
13.106
12.39
11.6759
10.9636
10.2527
9.54302
8.8343
8.12629
7.4188
6.71168
6.00482
5.29813
4.59157
3.88508
3.17864
2.47224
1.76585
1.05948
0.353136
26.6393
26.3453
25.9324
25.4316
24.868
24.2604
23.6222
22.963
22.2895
21.6063
20.9167
20.2223
19.524
18.8222
18.1167
17.4075
16.6948
15.9792
15.2617
14.5432
13.8249
13.1077
12.3919
11.6777
10.9651
10.254
9.54409
8.83512
8.1269
7.41924
6.71199
6.00503
5.29828
4.59166
3.88514
3.17868
2.47226
1.76586
1.05949
0.353138
26.4835
26.2339
25.8544
25.3776
24.831
24.2352
23.6052
22.9516
22.2819
21.6013
20.913
20.2194
19.5214
18.8196
18.1142
17.4052
16.6929
15.978
15.2611
14.5434
13.8257
13.1088
12.3931
11.6789
10.9663
10.255
9.54484
8.8357
8.12734
7.41955
6.71221
6.00518
5.29837
4.59172
3.88517
3.1787
2.47227
1.76587
1.05949
0.353142
26.3634
26.1533
25.8007
25.342
24.8074
24.2196
23.595
22.945
22.2776
21.5984
20.911
20.2178
19.52
18.8182
18.1128
17.4039
16.6919
15.9773
15.2608
14.5435
13.8261
13.1093
12.3938
11.6796
10.9668
10.2554
9.54523
8.836
8.12755
7.41971
6.71231
6.00525
5.29841
4.59175
3.88519
3.1787
2.47227
1.76587
1.05949
0.353145
26.3048
26.122
25.784
25.3331
24.8028
24.2173
23.5939
22.9446
22.2775
21.5985
20.9112
20.2179
19.5201
18.8182
18.1127
17.4038
16.6918
15.9772
15.2608
14.5435
13.8261
13.1094
12.3938
11.6796
10.9669
10.2555
9.54523
8.83599
8.12754
7.41969
6.71229
6.00523
5.2984
4.59173
3.88518
3.17869
2.47226
1.76586
1.05949
0.353146
26.362
26.152
25.7994
25.3406
24.8059
24.2181
23.5933
22.9431
22.2755
21.5961
20.9086
20.2152
19.5172
18.8154
18.1099
17.4011
16.6892
15.9748
15.2586
14.5415
13.8243
13.1078
12.3925
11.6785
10.966
10.2548
9.5447
8.83559
8.12724
7.41948
6.71215
6.00513
5.29834
4.5917
3.88517
3.1787
2.47227
1.76588
1.0595
0.353151
26.4128
26.163
25.7934
25.329
24.7937
24.2072
23.5843
22.936
22.27
21.5919
20.9053
20.2125
19.515
18.8135
18.1083
17.3997
16.6881
15.974
15.2581
14.5413
13.8244
13.1081
12.3929
11.679
10.9665
10.2552
9.54511
8.83594
8.12753
7.41971
6.71233
6.00527
5.29844
4.59177
3.88522
3.17873
2.4723
1.7659
1.05952
0.353154
26.533
26.2341
25.8347
25.3525
24.8069
24.2143
23.5879
22.9376
22.2705
21.5918
20.905
20.2122
19.5148
18.8134
18.1083
17.3998
16.6882
15.974
15.258
14.5411
13.8242
13.1079
12.3927
11.6788
10.9663
10.2551
9.54505
8.83591
8.12752
7.41972
6.71234
6.00529
5.29846
4.59179
3.88523
3.17875
2.47231
1.76591
1.05952
0.353153
26.6947
26.3419
25.9062
25.3997
24.8377
24.2342
23.6006
22.9456
22.2755
21.595
20.9071
20.2138
19.5162
18.8149
18.1098
17.4012
16.6893
15.9748
15.2583
14.541
13.8237
13.1071
12.3919
11.678
10.9656
10.2545
9.54459
8.83557
8.12728
7.41954
6.71223
6.00521
5.29842
4.59177
3.88522
3.17874
2.47231
1.76591
1.05952
0.353152
26.8725
26.4673
25.9939
25.4603
24.8791
24.2622
23.6194
22.958
22.2837
21.6004
20.9109
20.2168
19.5189
18.8175
18.1125
17.4037
16.6913
15.9761
15.2588
14.5407
13.8228
13.106
12.3906
11.6768
10.9645
10.2536
9.54383
8.83498
8.12684
7.41923
6.71201
6.00507
5.29832
4.59171
3.88518
3.17872
2.4723
1.7659
1.05952
0.353152
27.0461
26.5942
26.0855
25.5254
24.9248
24.2938
23.6409
22.9725
22.2933
21.6069
20.9156
20.2206
19.5225
18.821
18.1159
17.4068
16.6939
15.9777
15.2594
14.5404
13.8218
13.1045
12.3889
11.6751
10.963
10.2524
9.54286
8.83424
8.12629
7.41883
6.71173
6.00487
5.29819
4.59162
3.88513
3.17869
2.47228
1.76589
1.05951
0.353153
27.2006
26.71
26.1709
25.5873
24.9688
24.3247
23.6622
22.987
22.3032
21.6137
20.9205
20.2246
19.5262
18.8248
18.1197
17.4103
16.6967
15.9795
15.2601
14.5399
13.8205
13.1028
12.3871
11.6734
10.9615
10.2511
9.54182
8.83344
8.1257
7.4184
6.71143
6.00467
5.29805
4.59153
3.88507
3.17866
2.47226
1.76588
1.05951
0.353155
27.3252
26.8049
26.2419
25.6394
25.0064
24.3513
23.6807
22.9997
22.3118
21.6197
20.9249
20.2283
19.5298
18.8284
18.1233
17.4136
16.6994
15.9812
15.2606
14.5395
13.8193
13.1012
12.3854
11.6718
10.9601
10.2499
9.54088
8.83272
8.12516
7.41801
6.71115
6.00448
5.29793
4.59145
3.88502
3.17862
2.47224
1.76587
1.05951
0.353157
27.4122
26.872
26.2926
25.677
25.0337
24.3707
23.6944
23.0091
22.3183
21.6242
20.9283
20.2312
19.5325
18.8312
18.1261
17.4162
16.7015
15.9826
15.2611
14.5391
13.8184
13.1
12.3841
11.6705
10.959
10.249
9.54016
8.83217
8.12475
7.41772
6.71095
6.00434
5.29783
4.59139
3.88498
3.1786
2.47223
1.76586
1.0595
0.353159
27.4569
26.9067
26.319
25.6966
25.0481
24.3811
23.7017
23.0142
22.3219
21.6268
20.9303
20.2329
19.5342
18.8329
18.1277
17.4177
16.7027
15.9834
15.2614
14.539
13.818
13.0994
12.3834
11.6699
10.9584
10.2485
9.5398
8.8319
8.12455
7.41758
6.71085
6.00427
5.29779
4.59136
3.88496
3.17859
2.47222
1.76586
1.0595
0.353159
27.457
26.9069
26.3192
25.6968
25.0482
24.3812
23.7019
23.0144
22.3221
21.627
20.9305
20.2332
19.5345
18.8332
18.128
17.418
16.703
15.9836
15.2616
14.5392
13.8182
13.0995
12.3835
11.67
10.9585
10.2486
9.53986
8.83194
8.12459
7.41761
6.71087
6.00429
5.2978
4.59137
3.88497
3.17859
2.47222
1.76586
1.0595
0.353159
27.4126
26.8724
26.2931
25.6774
25.0341
24.3713
23.6949
23.0097
22.319
21.625
20.9291
20.232
19.5334
18.8321
18.1269
17.417
16.7022
15.9833
15.2617
14.5397
13.8189
13.1004
12.3844
11.6708
10.9592
10.2492
9.54033
8.8323
8.12486
7.4178
6.71101
6.00438
5.29786
4.59141
3.885
3.17861
2.47223
1.76586
1.0595
0.353157
27.3259
26.8056
26.2426
25.6401
25.0071
24.3521
23.6816
23.0007
22.3129
21.6209
20.9262
20.2297
19.5311
18.8298
18.1246
17.4149
16.7006
15.9824
15.2617
14.5404
13.8202
13.1019
12.386
11.6723
10.9605
10.2502
9.54114
8.83293
8.12532
7.41814
6.71125
6.00455
5.29798
4.59149
3.88505
3.17864
2.47225
1.76587
1.0595
0.353154
27.2016
26.7109
26.1718
25.5882
24.9698
24.3258
23.6634
22.9883
22.3046
21.6152
20.9222
20.2264
19.5281
18.8267
18.1215
17.4121
16.6984
15.9811
15.2615
14.5412
13.8216
13.1037
12.3879
11.674
10.962
10.2515
9.54218
8.83373
8.12592
7.41857
6.71156
6.00476
5.29812
4.59158
3.8851
3.17867
2.47227
1.76588
1.05951
0.353151
27.0473
26.5954
26.0866
25.5266
24.926
24.2951
23.6423
22.974
22.295
21.6088
20.9176
20.2227
19.5246
18.8232
18.1181
17.409
16.6959
15.9796
15.2611
14.5419
13.8231
13.1056
12.3899
11.6759
10.9637
10.2529
9.54329
8.83458
8.12655
7.41904
6.71188
6.00499
5.29827
4.59168
3.88517
3.17871
2.47229
1.76589
1.05951
0.353148
26.8738
26.4686
25.9952
25.4616
24.8804
24.2637
23.6209
22.9597
22.2855
21.6024
20.9131
20.2191
19.5214
18.82
18.1149
17.4061
16.6936
15.9782
15.2607
14.5424
13.8243
13.1073
12.3917
11.6777
10.9652
10.2542
9.54431
8.83537
8.12714
7.41946
6.71218
6.00519
5.29841
4.59176
3.88522
3.17874
2.47231
1.7659
1.05951
0.353147
26.6961
26.3433
25.9076
25.401
24.8391
24.2357
23.6023
22.9474
22.2775
21.5972
20.9094
20.2163
19.5188
18.8175
18.1125
17.4038
16.6918
15.977
15.2604
14.5428
13.8253
13.1085
12.393
11.679
10.9664
10.2552
9.54511
8.83598
8.12759
7.41978
6.7124
6.00534
5.2985
4.59182
3.88525
3.17876
2.47231
1.7659
1.05951
0.353146
26.5344
26.2354
25.836
25.3539
24.8083
24.2158
23.5896
22.9394
22.2725
21.5941
20.9074
20.2148
19.5175
18.8161
18.1111
17.4025
16.6907
15.9764
15.2602
14.5431
13.8259
13.1093
12.3939
11.6798
10.9672
10.2558
9.54558
8.83632
8.12784
7.41995
6.71252
6.00541
5.29854
4.59185
3.88526
3.17876
2.47231
1.7659
1.05951
0.353147
26.4142
26.1643
25.7948
25.3304
24.7952
24.2088
23.586
22.9378
22.272
21.5941
20.9077
20.2151
19.5177
18.8162
18.1111
17.4024
16.6907
15.9764
15.2603
14.5432
13.8261
13.1096
12.3941
11.68
10.9673
10.2559
9.54563
8.83634
8.12783
7.41993
6.71249
6.00538
5.29851
4.59182
3.88524
3.17874
2.4723
1.76589
1.05951
0.353148
26.3634
26.1533
25.8007
25.3419
24.8073
24.2195
23.5949
22.9448
22.2775
21.5983
20.9109
20.2177
19.5199
18.8181
18.1127
17.4038
16.6918
15.9771
15.2607
14.5434
13.826
13.1093
12.3937
11.6795
10.9668
10.2554
9.54519
8.83597
8.12753
7.41969
6.71229
6.00523
5.2984
4.59174
3.88518
3.1787
2.47226
1.76586
1.05949
0.353141
26.4821
26.2325
25.853
25.3762
24.8295
24.2336
23.6035
22.9497
22.2798
21.5989
20.9105
20.2167
19.5186
18.8167
18.1113
17.4024
16.6903
15.9755
15.2589
14.5414
13.8239
13.1073
12.3919
11.6779
10.9654
10.2543
9.5443
8.83529
8.12702
7.41932
6.71204
6.00506
5.29829
4.59167
3.88515
3.17869
2.47227
1.76587
1.0595
0.353146
26.533
26.2341
25.8347
25.3525
24.8069
24.2143
23.5879
22.9376
22.2705
21.5918
20.905
20.2122
19.5148
18.8134
18.1083
17.3998
16.6882
15.974
15.258
14.5411
13.8242
13.1079
12.3927
11.6788
10.9663
10.2551
9.54505
8.83591
8.12752
7.41972
6.71234
6.00529
5.29846
4.59179
3.88523
3.17875
2.47231
1.76591
1.05952
0.353153
26.6537
26.3002
25.8682
25.3678
24.8124
24.215
23.5863
22.9351
22.2679
21.5894
20.9028
20.2104
19.5133
18.8122
18.1074
17.3991
16.6876
15.9735
15.2577
14.5409
13.824
13.1078
12.3927
11.679
10.9665
10.2553
9.54526
8.83611
8.12771
7.41987
6.71247
6.00539
5.29854
4.59186
3.88529
3.17879
2.47234
1.76593
1.05954
0.353155
26.8192
26.4068
25.9357
25.4099
24.8383
24.2305
23.5954
22.9403
22.2706
21.5907
20.9034
20.2107
19.5137
18.8128
18.1081
17.3998
16.6882
15.9739
15.2577
14.5406
13.8235
13.1072
12.3921
11.6784
10.9661
10.255
9.54503
8.83596
8.12761
7.41982
6.71245
6.00539
5.29855
4.59187
3.8853
3.1788
2.47235
1.76594
1.05954
0.353157
27.0029
26.5331
26.0216
25.4677
24.8766
24.2557
23.6116
22.9505
22.277
21.5947
20.9061
20.2128
19.5156
18.8148
18.1102
17.4019
16.6899
15.9749
15.2579
14.5401
13.8226
13.1061
12.3909
11.6773
10.9651
10.2542
9.54445
8.83553
8.12731
7.41962
6.71232
6.00531
5.2985
4.59184
3.88529
3.1788
2.47235
1.76594
1.05955
0.35316
27.1834
26.6622
26.1128
25.5313
24.9204
24.2853
23.6315
22.9635
22.2855
21.6002
20.9099
20.2159
19.5186
18.8179
18.1134
17.4048
16.6923
15.9764
15.2583
14.5396
13.8214
13.1045
12.3893
11.6758
10.9639
10.2532
9.54364
8.83492
8.12687
7.4193
6.7121
6.00516
5.29841
4.59179
3.88525
3.17878
2.47235
1.76594
1.05955
0.353164
27.3444
26.7804
26.1984
25.5924
24.9633
24.315
23.6516
22.977
22.2944
21.6061
20.9141
20.2194
19.522
18.8215
18.1171
17.4083
16.695
15.978
15.2587
14.5388
13.8199
13.1028
12.3875
11.6742
10.9624
10.2521
9.54274
8.83424
8.12637
7.41895
6.71186
6.005
5.29831
4.59172
3.88521
3.17876
2.47234
1.76594
1.05955
0.35317
27.4742
26.8775
26.27
25.6442
25.0003
24.3409
23.6694
22.9891
22.3024
21.6116
20.918
20.2227
19.5253
18.825
18.1207
17.4116
16.6977
15.9796
15.259
14.5381
13.8185
13.1011
12.3858
11.6726
10.9611
10.251
9.54189
8.83361
8.12591
7.41862
6.71163
6.00485
5.2982
4.59166
3.88518
3.17874
2.47232
1.76593
1.05955
0.353175
27.565
26.9462
26.3211
25.6817
25.0272
24.3599
23.6826
22.9981
22.3085
21.6157
20.9211
20.2253
19.528
18.8278
18.1235
17.4142
16.6998
15.9808
15.2592
14.5374
13.8174
13.0997
12.3845
11.6714
10.9601
10.2501
9.54126
8.83313
8.12556
7.41837
6.71146
6.00473
5.29813
4.59161
3.88515
3.17872
2.47232
1.76593
1.05955
0.353178
27.6116
26.9817
26.3478
25.7013
25.0414
24.37
23.6897
23.0029
22.3118
21.618
20.9228
20.2268
19.5295
18.8295
18.1252
17.4158
16.701
15.9816
15.2594
14.5372
13.8168
13.099
12.3838
11.6708
10.9596
10.2497
9.54093
8.83289
8.12539
7.41825
6.71138
6.00468
5.29809
4.59159
3.88513
3.17871
2.47231
1.76593
1.05955
0.35318
27.6118
26.9819
26.3479
25.7015
25.0416
24.3702
23.6899
23.0031
22.312
21.6183
20.9231
20.2271
19.5298
18.8298
18.1255
17.4161
16.7013
15.9818
15.2596
14.5374
13.817
13.0992
12.3839
11.6709
10.9596
10.2498
9.54099
8.83294
8.12542
7.41828
6.7114
6.00469
5.2981
4.59159
3.88514
3.17871
2.47231
1.76593
1.05955
0.353179
27.5654
26.9466
26.3216
25.6821
25.0277
24.3604
23.6832
22.9987
22.3091
21.6164
20.9218
20.2261
19.5288
18.8287
18.1244
17.415
16.7005
15.9815
15.2598
14.538
13.8179
13.1001
12.3848
11.6717
10.9603
10.2503
9.54142
8.83326
8.12566
7.41845
6.71152
6.00478
5.29816
4.59163
3.88516
3.17873
2.47232
1.76593
1.05955
0.353176
27.475
26.8782
26.2707
25.6449
25.001
24.3417
23.6703
22.99
22.3035
21.6127
20.9193
20.224
19.5267
18.8264
18.122
17.4129
16.6989
15.9807
15.26
14.539
13.8193
13.1017
12.3864
11.6731
10.9615
10.2513
9.54216
8.83382
8.12607
7.41875
6.71173
6.00492
5.29826
4.59169
3.8852
3.17875
2.47233
1.76594
1.05955
0.35317
27.3454
26.7813
26.1994
25.5933
24.9643
24.3161
23.6528
22.9783
22.2958
21.6077
20.9158
20.2211
19.5238
18.8233
18.1189
17.41
16.6967
15.9795
15.2601
14.5401
13.821
13.1037
12.3883
11.6748
10.963
10.2525
9.54309
8.83452
8.12659
7.41912
6.71199
6.00509
5.29837
4.59177
3.88524
3.17878
2.47235
1.76594
1.05954
0.353164
27.1846
26.6633
26.1139
25.5324
24.9216
24.2866
23.6328
22.965
22.2871
21.602
20.9119
20.218
19.5208
18.8201
18.1156
17.4069
16.6942
15.9782
15.26
14.541
13.8227
13.1057
12.3903
11.6766
10.9645
10.2537
9.54406
8.83526
8.12713
7.4195
6.71225
6.00528
5.29849
4.59184
3.88529
3.1788
2.47236
1.76594
1.05954
0.353157
27.0042
26.5344
26.0228
25.4689
24.878
24.2571
23.6132
22.9522
22.2789
21.5967
20.9082
20.2151
19.5181
18.8173
18.1127
17.4042
16.6921
15.977
15.2598
14.5418
13.8241
13.1074
12.392
11.6782
10.9659
10.2548
9.54493
8.83591
8.1276
7.41984
6.71248
6.00543
5.29859
4.5919
3.88532
3.17882
2.47236
1.76594
1.05954
0.353152
26.8206
26.4081
25.937
25.4113
24.8397
24.232
23.5971
22.942
22.2726
21.5928
20.9058
20.2132
19.5163
18.8154
18.1107
17.4024
16.6907
15.9762
15.2597
14.5424
13.8251
13.1086
12.3933
11.6794
10.9669
10.2556
9.54554
8.83636
8.12792
7.42006
6.71262
6.00551
5.29864
4.59193
3.88533
3.17882
2.47236
1.76594
1.05953
0.353148
26.6551
26.3016
25.8696
25.3692
24.8139
24.2165
23.588
22.937
22.2699
21.5916
20.9052
20.2129
19.5159
18.8149
18.1101
17.4017
16.6901
15.9759
15.2598
14.5428
13.8257
13.1093
12.3939
11.68
10.9673
10.256
9.54578
8.83652
8.12801
7.4201
6.71264
6.00551
5.29862
4.59191
3.88531
3.1788
2.47234
1.76592
1.05952
0.353146
26.5344
26.2354
25.836
25.3539
24.8083
24.2158
23.5895
22.9394
22.2725
21.594
20.9074
20.2148
19.5175
18.8162
18.1111
17.4025
16.6908
15.9764
15.2602
14.5431
13.8259
13.1093
12.3939
11.6798
10.9671
10.2558
9.54555
8.8363
8.12782
7.41993
6.7125
6.00539
5.29853
4.59183
3.88525
3.17875
2.47231
1.76589
1.05951
0.353143
26.4835
26.2339
25.8544
25.3775
24.8309
24.2351
23.605
22.9514
22.2817
21.601
20.9128
20.2192
19.5212
18.8195
18.1141
17.4051
16.6928
15.9779
15.261
14.5433
13.8256
13.1087
12.393
11.6788
10.9662
10.2549
9.54477
8.83564
8.12728
7.4195
6.71217
6.00514
5.29834
4.59169
3.88515
3.17868
2.47225
1.76585
1.05948
0.353132
26.638
26.3439
25.9311
25.4302
24.8666
24.2588
23.6205
22.9611
22.2874
21.604
20.9142
20.2196
19.5212
18.8193
18.1139
17.4048
16.6922
15.9768
15.2595
14.5413
13.8232
13.1062
12.3906
11.6767
10.9643
10.2534
9.54356
8.83471
8.12659
7.41901
6.71182
6.00491
5.29819
4.5916
3.8851
3.17866
2.47225
1.76586
1.05949
0.353141
26.6947
26.3419
25.9062
25.3997
24.8377
24.2342
23.6006
22.9456
22.2755
21.595
20.9071
20.2138
19.5162
18.8149
18.1098
17.4012
16.6893
15.9748
15.2583
14.541
13.8237
13.1071
12.3919
11.678
10.9656
10.2545
9.54459
8.83557
8.12728
7.41954
6.71223
6.00521
5.29842
4.59177
3.88522
3.17874
2.47231
1.76591
1.05952
0.353152
26.8192
26.4068
25.9357
25.4099
24.8383
24.2305
23.5954
22.9403
22.2706
21.5907
20.9034
20.2107
19.5137
18.8128
18.1081
17.3998
16.6882
15.9739
15.2577
14.5406
13.8235
13.1072
12.3921
11.6784
10.9661
10.255
9.54503
8.83596
8.12761
7.41982
6.71245
6.00539
5.29855
4.59187
3.8853
3.1788
2.47235
1.76594
1.05954
0.353157
26.9886