# vtk DataFile Version 2.0
I need something to put here
ASCII

DATASET STRUCTURED_GRID
DIMENSIONS 41 21 21
POINTS 18081 float
0.000000 0.000000 0.000000
0.100000 0.000000 0.000000
0.200000 0.000000 0.000000
0.300000 0.000000 0.000000
0.400000 0.000000 0.000000
0.500000 0.000000 0.000000
0.600000 0.000000 0.000000
0.700000 0.000000 0.000000
0.800000 0.000000 0.000000
0.900000 0.000000 0.000000
1.000000 0.000000 0.000000
1.100000 0.000000 0.000000
1.200000 0.000000 0.000000
1.300000 0.000000 0.000000
1.400000 0.000000 0.000000
1.500000 0.000000 0.000000
1.600000 0.000000 0.000000
1.700000 0.000000 0.000000
1.800000 0.000000 0.000000
1.900000 0.000000 0.000000
2.000000 0.000000 0.000000
2.100000 0.000000 0.000000
2.200000 0.000000 0.000000
2.300000 0.000000 0.000000
2.400000 0.000000 0.000000
2.500000 0.000000 0.000000
2.600000 0.000000 0.000000
2.700000 0.000000 0.000000
2.800000 0.000000 0.000000
2.900000 0.000000 0.000000
3.000000 0.000000 0.000000
3.100000 0.000000 0.000000
3.200000 0.000000 0.000000
3.300000 0.000000 0.000000
3.400000 0.000000 0.000000
3.500000 0.000000 0.000000
3.600000 0.000000 0.000000
3.700000 0.000000 0.000000
3.800000 0.000000 0.000000
3.900000 0.000000 0.000000
4.000000 0.000000 0.000000
0.000000 0.100000 0.000000
0.100000 0.100000 0.000000
0.200000 0.100000 0.000000
0.300000 0.100000 0.000000
0.400000 0.100000 0.000000
0.500000 0.100000 0.000000
0.600000 0.100000 0.000000
0.700000 0.100000 0.000000
0.800000 0.100000 0.000000
0.900000 0.100000 0.000000
1.000000 0.100000 0.000000
1.100000 0.100000 0.000000
1.200000 0.100000 0.000000
1.300000 0.100000 0.000000
1.400000 0.100000 0.000000
1.500000 0.100000 0.000000
1.600000 0.100000 0.000000
1.700000 0.100000 0.000000
1.800000 0.100000 0.000000
1.900000 0.100000 0.000000
2.000000 0.100000 0.000000
2.100000 0.100000 0.000000
2.200000 0.100000 0.000000
2.300000 0.100000 0.000000
2.400000 0.100000 0.000000
2.500000 0.100000 0.000000
2.600000 0.100000 0.000000
2.700000 0.100000 0.000000
2.800000 0.100000 0.000000
2.900000 0.100000 0.000000
3.000000 0.100000 0.000000
3.100000 0.100000 0.000000
3.200000 0.100000 0.000000
3.300000 0.100000 0.000000
3.400000 0.100000 0.000000
3.500000 0.100000 0.000000
3.600000 0.100000 0.000000
3.700000 0.100000 0.000000
3.800000 0.100000 0.000000
3.900000 0.100000 0.000000
4.000000 0.100000 0.000000
0.000000 0.200000 0.000000
0.100000 0.200000 0.000000
0.200000 0.200000 0.000000
0.300000 0.200000 0.000000
0.400000 0.200000 0.000000
0.500000 0.200000 0.000000
0.600000 0.200000 0.000000
0.700000 0.200000 0.000000
0.800000 0.200000 0.000000
0.900000 0.200000 0.000000
1.000000 0.200000 0.000000
1.100000 0.200000 0.000000
1.200000 0.200000 0.000000
1.300000 0.200000 0.000000
1.400000 0.200000 0.000000
1.500000 0.200000 0.000000
1.600000 0.200000 0.000000
1.700000 0.200000 0.000000
1.800000 0.200000 0.000000
1.900000 0.200000 0.000000
2.000000 0.200000 0.000000
2.100000 0.200000 0.000000
2.200000 0.200000 0.000000
2.300000 0.200000 0.000000
2.400000 0.200000 0.000000
2.500000 0.200000 0.000000
2.600000 0.200000 0.000000
2.700000 0.200000 0.000000
2.800000 0.200000 0.000000
2.900000 0.200000 0.000000
3.000000 0.200000 0.000000
3.100000 0.200000 0.000000
3.200000 0.200000 0.000000
3.300000 0.200000 0.000000
3.400000 0.200000 0.000000
3.500000 0.200000 0.000000
3.600000 0.200000 0.000000
3.700000 0.200000 0.000000
3.800000 0.200000 0.000000
3.900000 0.200000 0.000000
4.000000 0.200000 0.000000
0.000000 0.300000 0.000000
0.100000 0.300000 0.000000
0.200000 0.300000 0.000000
0.300000 0.300000 0.000000
0.400000 0.300000 0.000000
0.500000 0.300000 0.000000
0.600000 0.300000 0.000000
0.700000 0.300000 0.000000
0.800000 0.300000 0.000000
0.900000 0.300000 0.000000
1.000000 0.300000 0.000000
1.100000 0.300000 0.000000
1.200000 0.300000 0.000000
1.300000 0.300000 0.000000
1.400000 0.300000 0.000000
1.500000 0.300000 0.000000
1.600000 0.300000 0.000000
1.700000 0.300000 0.000000
1.800000 0.300000 0.000000
1.900000 0.300000 0.000000
2.000000 0.300000 0.000000
2.100000 0.300000 0.000000
2.200000 0.300000 0.000000
2.300000 0.300000 0.000000
2.400000 0.300000 0.000000
2.500000 0.300000 0.000000
2.600000 0.300000 0.000000
2.700000 0.300000 0.000000
2.800000 0.300000 0.000000
2.900000 0.300000 0.000000
3.000000 0.300000 0.000000
3.100000 0.300000 0.000000
3.200000 0.300000 0.000000
3.300000 0.300000 0.000000
3.400000 0.300000 0.000000
3.500000 0.300000 0.000000
3.600000 0.300000 0.000000
3.700000 0.300000 0.000000
3.800000 0.300000 0.000000
3.900000 0.300000 0.000000
4.000000 0.300000 0.000000
0.000000 0.400000 0.000000
0.100000 0.400000 0.000000
0.200000 0.400000 0.000000
0.300000 0.400000 0.000000
0.400000 0.400000 0.000000
0.500000 0.400000 0.000000
0.600000 0.400000 0.000000
0.700000 0.400000 0.000000
0.800000 0.400000 0.000000
0.900000 0.400000 0.000000
1.000000 0.400000 0.000000
1.100000 0.400000 0.000000
1.200000 0.400000 0.000000
1.300000 0.400000 0.000000
1.400000 0.400000 0.000000
1.500000 0.400000 0.000000
1.600000 0.400000 0.000000
1.700000 0.400000 0.000000
1.800000 0.400000 0.000000
1.900000 0.400000 0.000000
2.000000 0.400000 0.000000
2.100000 0.400000 0.000000
2.200000 0.400000 0.000000
2.300000 0.400000 0.000000
2.400000 0.400000 0.000000
2.500000 0.400000 0.000000
2.600000 0.400000 0.000000
2.700000 0.400000 0.000000
2.800000 0.400000 0.000000
2.900000 0.400000 0.000000
3.000000 0.400000 0.000000
3.100000 0.400000 0.000000
3.200000 0.400000 0.000000
3.300000 0.400000 0.000000
3.400000 0.400000 0.000000
3.500000 0.400000 0.000000
3.600000 0.400000 0.000000
3.700000 0.400000 0.000000
3.800000 0.400000 0.000000
3.900000 0.400000 0.000000
4.000000 0.400000 0.000000
0.000000 0.500000 0.000000
0.100000 0.500000 0.000000
0.200000 0.500000 0.000000
0.300000 0.500000 0.000000
0.400000 0.500000 0.000000
0.500000 0.500000 0.000000
0.600000 0.500000 0.000000
0.700000 0.500000 0.000000
0.800000 0.500000 0.000000
0.900000 0.500000 0.000000
1.000000 0.500000 0.000000
1.100000 0.500000 0.000000
1.200000 0.500000 0.000000
1.300000 0.500000 0.000000
1.400000 0.500000 0.000000
1.500000 0.500000 0.000000
1.600000 0.500000 0.000000
1.700000 0.500000 0.000000
1.800000 0.500000 0.000000
1.900000 0.500000 0.000000
2.000000 0.500000 0.000000
2.100000 0.500000 0.000000
2.200000 0.500000 0.000000
2.300000 0.500000 0.000000
2.400000 0.500000 0.000000
2.500000 0.500000 0.000000
2.600000 0.500000 0.000000
2.700000 0.500000 0.000000
2.800000 0.500000 0.000000
2.900000 0.500000 0.000000
3.000000 0.500000 0.000000
3.100000 0.500000 0.000000
3.200000 0.500000 0.000000
3.300000 0.500000 0.000000
3.400000 0.500000 0.000000
3.500000 0.500000 0.000000
3.600000 0.500000 0.000000
3.700000 0.500000 0.000000
3.800000 0.500000 0.000000
3.900000 0.500000 0.000000
4.000000 0.500000 0.000000
0.000000 0.600000 0.000000
0.100000 0.600000 0.000000
0.200000 0.600000 0.000000
0.300000 0.600000 0.000000
0.400000 0.600000 0.000000
0.500000 0.600000 0.000000
0.600000 0.600000 0.000000
0.700000 0.600000 0.000000
0.800000 0.600000 0.000000
0.900000 0.600000 0.000000
1.000000 0.600000 0.000000
1.100000 0.600000 0.000000
1.200000 0.600000 0.000000
1.300000 0.600000 0.000000
1.400000 0.600000 0.000000
1.500000 0.600000 0.000000
1.600000 0.600000 0.000000
1.700000 0.600000 0.000000
1.800000 0.600000 0.000000
1.900000 0.600000 0.000000
2.000000 0.600000 0.000000
2.100000 0.600000 0.000000
2.200000 0.600000 0.000000
2.300000 0.600000 0.000000
2.400000 0.600000 0.000000
2.500000 0.600000 0.000000
2.600000 0.600000 0.000000
2.700000 0.600000 0.000000
2.800000 0.600000 0.000000
2.900000 0.600000 0.000000
3.000000 0.600000 0.000000
3.100000 0.600000 0.000000
3.200000 0.600000 0.000000
3.300000 0.600000 0.000000
3.400000 0.600000 0.000000
3.500000 0.600000 0.000000
3.600000 0.600000 0.000000
3.700000 0.600000 0.000000
3.800000 0.600000 0.000000
3.900000 0.600000 0.000000
4.000000 0.600000 0.000000
0.000000 0.700000 0.000000
0.100000 0.700000 0.000000
0.200000 0.700000 0.000000
0.300000 0.700000 0.000000
0.400000 0.700000 0.000000
0.500000 0.700000 0.000000
0.600000 0.700000 0.000000
0.700000 0.700000 0.000000
0.800000 0.700000 0.000000
0.900000 0.700000 0.000000
1.000000 0.700000 0.000000
1.100000 0.700000 0.000000
1.200000 0.700000 0.000000
1.300000 0.700000 0.000000
1.400000 0.700000 0.000000
1.500000 0.700000 0.000000
1.600000 0.700000 0.000000
1.700000 0.700000 0.000000
1.800000 0.700000 0.000000
1.900000 0.700000 0.000000
2.000000 0.700000 0.000000
2.100000 0.700000 0.000000
2.200000 0.700000 0.000000
2.300000 0.700000 0.000000
2.400000 0.700000 0.000000
2.500000 0.700000 0.000000
2.600000 0.700000 0.000000
2.700000 0.700000 0.000000
2.800000 0.700000 0.000000
2.900000 0.700000 0.000000
3.000000 0.700000 0.000000
3.100000 0.700000 0.000000
3.200000 0.700000 0.000000
3.300000 0.700000 0.000000
3.400000 0.700000 0.000000
3.500000 0.700000 0.000000
3.600000 0.700000 0.000000
3.700000 0.700000 0.000000
3.800000 0.700000 0.000000
3.900000 0.700000 0.000000
4.000000 0.700000 0.000000
0.000000 0.800000 0.000000
0.100000 0.800000 0.000000
0.200000 0.800000 0.000000
0.300000 0.800000 0.000000
0.400000 0.800000 0.000000
0.500000 0.800000 0.000000
0.600000 0.800000 0.000000
0.700000 0.800000 0.000000
0.800000 0.800000 0.000000
0.900000 0.800000 0.000000
1.000000 0.800000 0.000000
1.100000 0.800000 0.000000
1.200000 0.800000 0.000000
1.300000 0.800000 0.000000
1.400000 0.800000 0.000000
1.500000 0.800000 0.000000
1.600000 0.800000 0.000000
1.700000 0.800000 0.000000
1.800000 0.800000 0.000000
1.900000 0.800000 0.000000
2.000000 0.800000 0.000000
2.100000 0.800000 0.000000
2.200000 0.800000 0.000000
2.300000 0.800000 0.000000
2.400000 0.800000 0.000000
2.500000 0.800000 0.000000
2.600000 0.800000 0.000000
2.700000 0.800000 0.000000
2.800000 0.800000 0.000000
2.900000 0.800000 0.000000
3.000000 0.800000 0.000000
3.100000 0.800000 0.000000
3.200000 0.800000 0.000000
3.300000 0.800000 0.000000
3.400000 0.800000 0.000000
3.500000 0.800000 0.000000
3.600000 0.800000 0.000000
[...]
CELL_DATA 16000
SCALARS pressure float 1
LOOKUP_TABLE default
32.8033
32.6256
32.2876
31.824
31.2617
30.6185
29.9043
29.1233
28.2761
27.3618
26.3805
25.3349
24.2318
23.0819
21.8996
20.7007
19.5021
18.3202
17.1696
16.0622
15.0061
14.0048
13.0576
12.1605
11.3074
10.491
9.70428
8.94053
8.19416
7.46054
6.73608
6.01801
5.30432
4.59356
3.8847
3.17706
2.47018
1.7638
1.05782
0.352291
32.8594
32.656
32.304
31.8328
31.2665
30.6211
29.906
29.1248
28.2777
27.3637
26.3825
25.3368
24.2333
23.0829
21.8998
20.7003
19.5011
18.3186
17.1676
16.0601
15.004
14.003
13.0563
12.1597
11.307
10.491
9.70449
8.94089
8.19459
7.46098
6.73649
6.01838
5.30463
4.59381
3.88491
3.17722
2.4703
1.76388
1.05785
0.352234
32.98
32.7396
32.3632
31.8763
31.3005
30.6502
29.9332
29.152
28.3058
27.3922
26.4101
25.3615
24.2531
23.0964
21.9061
20.6992
19.4928
18.3039
17.1478
16.0369
14.9797
13.9794
13.0349
12.1414
11.2921
10.4794
9.69572
8.93451
8.19008
7.45789
6.73443
6.01705
5.30381
4.59333
3.88464
3.17708
2.47022
1.76382
1.05776
0.352114
33.1428
32.8599
32.4532
31.946
31.3579
30.7014
29.9826
29.2024
28.3581
27.4455
26.4616
25.4074
24.2897
23.1209
21.9172
20.6964
19.4767
18.2758
17.1101
15.9931
14.9337
13.9348
12.9945
12.1068
11.2638
10.4571
9.67887
8.92211
8.1812
7.4517
6.73023
6.01427
5.30202
4.59221
3.88396
3.17668
2.46999
1.76367
1.05763
0.352005
33.3263
33.0012
32.5626
32.0336
31.4324
30.7698
30.0502
29.2726
28.4317
27.5207
26.5344
25.4722
24.3411
23.155
21.932
20.6915
19.4528
18.2349
17.0556
15.93
14.8677
13.8713
12.9372
12.0579
11.224
10.4259
9.65523
8.90471
8.16873
7.44298
6.72427
6.0103
5.29944
4.59058
3.88296
3.17609
2.46964
1.76346
1.05749
0.351928
33.5114
33.1482
32.6795
32.1297
31.5161
30.8486
30.1297
29.3562
28.5203
27.612
26.623
25.551
24.4031
23.1956
21.949
20.6845
19.4227
18.184
16.9881
15.8523
14.7869
13.7938
12.8678
11.999
11.1762
10.3887
9.62707
8.88404
8.15395
7.43265
6.71721
6.00558
5.29637
4.58863
3.88176
3.17537
2.46923
1.76322
1.05737
0.351887
33.6814
33.2861
32.7916
32.2237
31.5999
30.9289
30.212
29.4439
28.6142
27.7094
26.718
25.6355
24.4695
23.2387
21.9666
20.6762
19.3896
18.1286
16.9149
15.7681
14.6997
13.7108
12.7939
11.9366
11.1259
10.3496
9.59767
8.86252
8.13858
7.42193
6.7099
6.0007
5.29318
4.5866
3.88051
3.17462
2.4688
1.763
1.05727
0.351875
33.8221
33.4022
32.8874
32.3054
31.6739
31.0009
30.2868
29.5246
28.7012
27.8004
26.8071
25.7149
24.5317
23.2788
21.9826
20.668
19.3582
18.0761
16.8456
15.6888
14.618
13.6334
12.7252
11.8791
11.0797
10.3138
9.57085
8.84295
8.12465
7.41223
6.70329
5.99629
5.29031
4.58478
3.87938
3.17395
2.46842
1.7628
1.05719
0.351881
33.9225
33.4859
32.9572
32.3657
31.7291
31.0553
30.3439
29.5866
28.7686
27.8711
26.8766
25.7769
24.5803
23.3102
21.9952
20.6616
19.3335
18.0349
16.7914
15.6268
14.5543
13.5733
12.6722
11.8347
11.0442
10.2865
9.5504
8.82807
8.11407
7.40487
6.69828
5.99296
5.28813
4.5834
3.87853
3.17345
2.46814
1.76266
1.05714
0.351894
33.9748
33.5297
32.9941
32.3978
31.7587
31.0847
30.3749
29.6204
28.8055
27.91
26.9149
25.8112
24.6072
23.3276
22.0022
20.6581
19.32
18.0124
16.7616
15.5928
14.5195
13.5405
12.6433
11.8106
11.025
10.2717
9.53935
8.82003
8.10836
7.40091
6.69558
5.99116
5.28696
4.58265
3.87807
3.17317
2.46799
1.76259
1.05712
0.351902
33.975
33.53
32.9943
32.398
31.7589
31.085
30.3752
29.6208
28.8059
27.9103
26.9153
25.8116
24.6076
23.328
22.0025
20.6584
19.3203
18.0127
16.7619
15.593
14.5196
13.5406
12.6434
11.8107
11.0251
10.2717
9.53938
8.82005
8.10837
7.40091
6.69559
5.99116
5.28696
4.58265
3.87807
3.17317
2.46799
1.76258
1.05711
0.3519
33.9232
33.4865
32.9579
32.3664
31.7298
31.0561
30.3448
29.5875
28.7696
27.8722
26.8777
25.7781
24.5815
23.3113
21.9962
20.6625
19.3344
18.0357
16.7921
15.6273
14.5548
13.5736
12.6725
11.8349
11.0444
10.2866
9.55047
8.82811
8.11409
7.40489
6.69829
5.99296
5.28813
4.58339
3.87852
3.17344
2.46814
1.76266
1.05714
0.351889
33.8232
33.4033
32.8885
32.3065
31.6751
31.0022
30.2882
29.5261
28.7029
27.8021
26.8089
25.7168
24.5335
23.2806
21.9843
20.6695
19.3595
18.0773
16.8466
15.6896
14.6186
13.6339
12.7256
11.8793
11.0799
10.314
9.57094
8.84301
8.12468
7.41225
6.7033
5.99629
5.29031
4.58477
3.87937
3.17394
2.46842
1.7628
1.05718
0.351874
33.6828
33.2876
32.793
32.2252
31.6015
30.9306
30.2138
29.4459
28.6164
27.7118
26.7205
25.638
24.4719
23.241
21.9687
20.6781
19.3913
18.13
16.916
15.769
14.7005
13.7114
12.7943
11.937
11.1262
10.3498
9.59778
8.86259
8.13863
7.42196
6.70991
6.0007
5.29318
4.58659
3.8805
3.17461
2.46879
1.76299
1.05726
0.351865
33.5131
33.1499
32.6812
32.1315
31.518
30.8506
30.1319
29.3586
28.5229
27.6148
26.6259
25.5539
24.406
23.1983
21.9515
20.6866
19.4245
18.1855
16.9894
15.8533
14.7877
13.7944
12.8683
11.9994
11.1765
10.3888
9.62718
8.88411
8.15399
7.43267
6.71722
6.00558
5.29636
4.58861
3.88174
3.17535
2.46921
1.76321
1.05736
0.351875
33.3282
33.0032
32.5646
32.0357
31.4345
30.7721
30.0527
29.2753
28.4346
27.5238
26.5376
25.4754
24.3442
23.158
21.9347
20.6938
19.4548
18.2365
17.0569
15.9311
14.8685
13.8719
12.9377
12.0583
11.2242
10.4261
9.65534
8.90478
8.16877
7.443
6.72428
6.01029
5.29942
4.59056
3.88294
3.17607
2.46963
1.76344
1.05748
0.351915
33.1448
32.862
32.4553
31.9482
31.3601
30.7038
29.9852
29.2053
28.3612
27.4487
26.4649
25.4108
24.293
23.1241
21.9201
20.6989
19.4787
18.2775
17.1114
15.9941
14.9344
13.9354
12.9949
12.1071
11.264
10.4573
9.67897
8.92217
8.18123
7.45171
6.73022
6.01425
5.302
4.59219
3.88394
3.17666
2.46997
1.76365
1.05762
0.351993
32.9822
32.7418
32.3654
31.8785
31.3028
30.6526
29.9358
29.1549
28.3089
27.3955
26.4135
25.3649
24.2565
23.0995
21.909
20.7017
19.4949
18.3056
17.1491
16.0379
14.9804
13.98
13.0353
12.1417
11.2923
10.4795
9.69581
8.93456
8.1901
7.4579
6.73442
6.01704
5.30379
4.59331
3.88461
3.17705
2.4702
1.7638
1.05775
0.352103
32.8616
32.6581
32.3062
31.835
31.2687
30.6235
29.9086
29.1276
28.2808
27.3669
26.3859
25.3402
24.2366
23.086
21.9027
20.7028
19.5032
18.3203
17.1689
16.0611
15.0048
14.0036
13.0567
12.16
11.3072
10.4911
9.70457
8.94094
8.1946
7.46098
6.73648
6.01836
5.30461
4.59379
3.88488
3.17719
2.47028
1.76386
1.05783
0.352224
32.8055
32.6277
32.2897
31.8262
31.264
30.6209
29.9068
29.126
28.279
27.365
26.3838
25.3382
24.235
23.085
21.9024
20.7031
19.5042
18.3218
17.1709
16.0632
15.0069
14.0053
13.058
12.1608
11.3076
10.4912
9.70435
8.94057
8.19417
7.46054
6.73606
6.01799
5.3043
4.59353
3.88467
3.17703
2.47016
1.76378
1.05781
0.352284
32.8594
32.656
32.304
31.8328
31.2665
30.6211
29.906
29.1248
28.2777
27.3637
26.3825
25.3368
24.2333
23.0829
21.8998
20.7003
19.5011
18.3186
17.1676
16.0601
15.004
14.003
13.0563
12.1597
11.307
10.491
9.70449
8.9409
8.19459
7.46098
6.73649
6.01838
5.30463
4.59381
3.88491
3.17722
2.4703
1.76388
1.05785
0.352234
32.904
32.6621
32.2916
31.8123
31.2424
30.5955
29.8793
29.0974
28.25
27.3364
26.3568
25.314
24.2147
23.0696
21.8926
20.6994
19.5064
18.3296
17.1834
16.0792
15.0251
14.0245
13.077
12.1787
11.3237
10.5051
9.7161
8.95019
8.20186
7.46655
6.74067
6.02147
5.30688
4.59543
3.88606
3.17803
2.47088
1.7643
1.05814
0.352318
33.021
32.7328
32.3334
31.8367
31.2567
30.6042
29.8854
29.1026
28.2553
27.342
26.3624
25.319
24.2185
23.0717
21.8929
20.6979
19.5032
18.325
17.1777
16.0731
15.0192
14.0194
13.0731
12.176
11.3222
10.5046
9.71627
8.9508
8.2027
7.46748
6.74158
6.0223
5.3076
4.59603
3.88655
3.17842
2.47118
1.76451
1.05825
0.352292
33.1872
32.8469
32.4131
31.8939
31.3003
30.6402
29.9182
29.1349
28.2883
27.3754
26.3946
25.3475
24.2408
23.0862
21.8987
20.6949
19.4918
18.306
17.1529
16.0447
14.9898
13.9914
13.0481
12.155
11.3054
10.4918
9.70684
8.94413
8.19816
7.46452
6.73974
6.02122
5.30703
4.59577
3.88647
3.17845
2.47125
1.76458
1.05828
0.352263
33.3778
32.9857
32.5159
31.9728
31.3642
30.6964
29.9716
29.1887
28.3437
27.4315
26.4484
25.395
24.2781
23.1104
21.9084
20.6899
19.4728
18.2746
17.1115
15.9973
14.9406
13.9442
13.0058
12.1191
11.2763
10.4691
9.68983
8.93176
8.18943
7.45853
6.73575
6.01865
5.30543
4.59483
3.88595
3.17819
2.47113
1.76454
1.05827
0.35226
33.5711
33.1317
32.6282
32.062
31.4393
30.7644
30.0379
29.2567
28.4144
27.5034
26.5176
25.456
24.3256
23.141
21.9204
20.6831
19.4481
18.2338
17.058
15.936
14.8771
13.8837
12.9516
12.0731
11.239
10.44
9.66788
8.91568
8.17797
7.45057
6.73037
6.01511
5.30317
4.59344
3.88513
3.17773
2.4709
1.76444
1.05824
0.352287
33.7488
33.2694
32.7367
32.1506
31.5157
30.8352
30.1082
29.3297
28.491
27.5818
26.5934
25.523
24.3776
23.1741
21.9332
20.6754
19.4207
18.1887
16.9989
15.8685
14.8075
13.8175
12.8926
12.0232
11.1987
10.4086
9.64416
8.89829
8.16556
7.44192
6.72449
6.01121
5.30066
4.59187
3.88419
3.17719
2.47062
1.76431
1.05822
0.352336
33.8959
33.3855
32.8298
32.2279
31.5836
30.8992
30.1727
29.3973
28.5626
27.6557
26.6651
25.5864
24.4268
23.2054
21.9451
20.6678
19.3946
18.1459
16.9427
15.8044
14.7418
13.7552
12.8373
11.9768
11.1612
10.3795
9.62221
8.88221
8.15406
7.43391
6.71903
6.00758
5.2983
4.59038
3.88329
3.17667
2.47034
1.76419
1.05819
0.352392
34.0007
33.4692
32.8978
32.285
31.6345
30.9477
30.222
29.4495
28.6183
27.7134
26.7213
25.6362
24.4654
23.2299
21.9544
20.6619
19.3741
18.1123
16.8986
15.7543
14.6904
13.7068
12.7945
11.9408
11.1323
10.3571
9.60536
8.86987
8.14525
7.42776
6.71484
6.00478
5.29649
4.58924
3.88259
3.17627
2.47012
1.76409
1.05818
0.35244
34.0553
33.513
32.9337
32.3155
31.6618
30.9739
30.2488
29.4781
28.6488
27.7451
26.7523
25.6637
24.4868
23.2436
21.9597
20.6587
19.3629
18.0938
16.8745
15.7268
14.6624
13.6804
12.7712
11.9213
11.1166
10.3449
9.59622
8.86319
8.14048
7.42443
6.71257
6.00327
5.29551
4.58862
3.88221
3.17605
2.47
1.76404
1.05817
0.352468
34.0555
33.5133
32.9339
32.3157
31.662
30.9742
30.2491
29.4784
28.6491
27.7454
26.7527
25.6641
24.4872
23.2439
21.96
20.659
19.3632
18.0941
16.8747
15.727
14.6625
13.6805
12.7713
11.9214
11.1167
10.3449
9.59625
8.8632
8.14049
7.42444
6.71257
6.00327
5.29551
4.58862
3.88221
3.17604
2.47
1.76404
1.05817
0.352467
34.0014
33.4698
32.8985
32.2857
31.6352
30.9485
30.2228
29.4504
28.6192
27.7144
26.7224
25.6372
24.4664
23.2309
21.9553
20.6628
19.3749
18.113
16.8992
15.7548
14.6908
13.7071
12.7948
11.941
11.1325
10.3571
9.60542
8.86991
8.14528
7.42778
6.71485
6.00479
5.29649
4.58924
3.88259
3.17626
2.47012
1.76409
1.05818
0.352438
33.897
33.3865
32.8309
32.229
31.5848
30.9004
30.174
29.3988
28.5642
27.6573
26.6668
25.5881
24.4284
23.207
21.9465
20.6692
19.3958
18.147
16.9436
15.8052
14.7424
13.7557
12.8377
11.977
11.1614
10.3796
9.6223
8.88227
8.1541
7.43393
6.71904
6.00758
5.2983
4.59038
3.88328
3.17667
2.47033
1.76418
1.05819
0.352388
33.7503
33.2708
32.7381
32.152
31.5172
30.8368
30.1099
29.3315
28.493
27.584
26.5957
25.5252
24.3798
23.1762
21.9351
20.6771
19.4222
18.1901
17
15.8693
14.8082
13.818
12.893
12.0236
11.1989
10.4088
9.64427
8.89837
8.1656
7.44195
6.7245
6.01121
5.30066
4.59186
3.88418
3.17718
2.47061
1.76431
1.05821
0.352331
33.5729
33.1334
32.6299
32.0638
31.4412
30.7664
30.04
29.2589
28.4168
27.506
26.5203
25.4587
24.3283
23.1435
21.9227
20.6851
19.4498
18.2352
17.0592
15.937
14.8779
13.8842
12.952
12.0734
11.2393
10.4402
9.66799
8.91576
8.17802
7.4506
6.73038
6.01511
5.30317
4.59343
3.88512
3.17772
2.47089
1.76443
1.05824
0.352281
33.3798
32.9876
32.5179
31.9747
31.3663
30.6986
29.974
29.1913
28.3464
27.4344
26.4514
25.398
24.281
23.1131
21.9109
20.6921
19.4747
18.2761
17.1128
15.9983
14.9414
13.9448
13.0062
12.1194
11.2766
10.4693
9.68995
8.93184
8.18947
7.45855
6.73576
6.01864
5.30542
4.59482
3.88594
3.17817
2.47112
1.76453
1.05827
0.352253
33.1893
32.849
32.4151
31.896
31.3025
30.6426
29.9207
29.1376
28.2912
27.3785
26.3977
25.3507
24.2439
23.0892
21.9014
20.6972
19.4937
18.3077
17.1542
16.0457
14.9906
13.992
13.0485
12.1553
11.3056
10.4919
9.70694
8.9442
8.1982
7.46453
6.73974
6.02121
5.30701
4.59575
3.88645
3.17843
2.47123
1.76457
1.05828
0.352256
33.0232
32.7349
32.3356
31.8389
31.259
30.6066
29.888
29.1053
28.2582
27.3452
26.3657
25.3223
24.2217
23.0747
21.8956
20.7003
19.5052
18.3266
17.179
16.0741
15.02
14.02
13.0735
12.1763
11.3224
10.5048
9.71636
8.95085
8.20273
7.46749
6.74158
6.02228
5.30758
4.59601
3.88653
3.1784
2.47116
1.7645
1.05824
0.352284
32.9062
32.6642
32.2937
31.8144
31.2447
30.5978
29.8818
29.1001
28.253
27.3396
26.3601
25.3173
24.2179
23.0726
21.8954
20.7018
19.5085
18.3313
17.1847
16.0802
15.0258
14.0251
13.0774
12.1789
11.3239
10.5053
9.71618
8.95023
8.20188
7.46655
6.74066
6.02145
5.30686
4.59541
3.88603
3.17801
2.47086
1.76428
1.05813
0.352311
32.8616
32.6581
32.3061
31.8349
31.2686
30.6234
29.9084
29.1274
28.2806
27.3668
26.3857
25.3401
24.2365
23.0859
21.9026
20.7027
19.5031
18.3202
17.1689
16.0611
15.0048
14.0036
13.0567
12.16
11.3072
10.4911
9.70456
8.94093
8.1946
7.46098
6.73647
6.01835
5.30461
4.59379
3.88488
3.17719
2.47028
1.76386
1.05783
0.352227
32.98
32.7396
32.3632
31.8763
31.3005
30.6502
29.9332
29.152
28.3058
27.3922
26.4101
25.3615
24.2531
23.0963
21.9061
20.6992
19.4928
18.3039
17.1478
16.0369
14.9797
13.9794
13.0349
12.1414
11.2921
10.4794
9.69573
8.93451
8.19008
7.45789
6.73444
6.01705
5.30381
4.59333
3.88464
3.17708
2.47022
1.76382
1.05776
0.352114
33.021
32.7328
32.3334
31.8367
31.2567
30.6042
29.8854
29.1026
28.2553
27.342
26.3624
25.319
24.2185
23.0717
21.8929
20.6979
19.5032
18.325
17.1777
16.0731
15.0192
14.0195
13.0731
12.176
11.3222
10.5046
9.71627
8.9508
8.2027
7.46748
6.74158
6.0223
5.3076
4.59603
3.88655
3.17842
2.47118
1.76451
1.05825
0.352292
33.1345
32.7951
32.3631
31.8469
31.2556
30.5967
29.8745
29.0901
28.2425
27.3298
26.3511
25.3089
24.2098
23.0649
21.8883
20.6958
19.5038
18.3279
17.1827
16.08
15.0276
14.0289
13.0831
12.1861
11.3318
10.5134
9.72401
8.9574
8.20817
7.47191
6.74509
6.02503
5.30969
4.59761
3.88773
3.1793
2.47182
1.76497
1.05852
0.35232
33.3015
32.9052
32.4351
31.8943
31.2879
30.6205
29.8944
29.1091
28.262
27.3499
26.3708
25.3261
24.2225
23.0721
21.8898
20.6918
19.4946
18.3141
17.1653
16.0607
15.0085
14.0117
13.0689
12.1751
11.3239
10.5082
9.72083
8.95572
8.20752
7.4719
6.74545
6.02557
5.31029
4.59819
3.88825
3.17975
2.47219
1.76524
1.05869
0.352345
33.4969
33.0432
32.5337
31.9666
31.3439
30.6677
29.9381
29.1529
28.3075
27.3965
26.4158
25.3654
24.2522
23.09
21.8954
20.6853
19.4765
18.2856
17.1284
16.0191
14.9664
13.9726
13.0349
12.1473
11.3022
10.4918
9.70906
8.94755
8.20206
7.46841
6.74334
6.02438
5.3097
4.59797
3.88824
3.17984
2.47232
1.76538
1.05879
0.352401
33.6973
33.1907
32.6438
32.0516
31.4134
30.7292
29.9974
29.2137
28.3713
27.4623
26.4794
25.4209
24.294
23.1151
21.9033
20.6764
19.4516
18.2459
17.0767
15.9607
14.9073
13.9176
12.9871
12.1078
11.2709
10.4681
9.69156
8.93506
8.19341
7.46259
6.73956
6.02201
5.30829
4.59719
3.88785
3.17969
2.47231
1.76543
1.05887
0.352491
33.8828
33.3308
32.7516
32.1374
31.4858
30.7952
30.0626
29.2817
28.4437
27.5375
26.5528
25.485
24.3417
23.1436
21.9122
20.6664
19.4233
18.2005
17.0171
15.8934
14.8396
13.8551
12.9328
12.0631
11.2356
10.4411
9.67162
8.9207
8.18335
7.45574
6.73501
6.01909
5.30648
4.59611
3.88726
3.1794
2.47219
1.76542
1.05893
0.352603
34.037
33.4495
32.8446
32.213
31.551
30.856
30.1236
29.3463
28.5132
27.6105
26.6245
25.5479
24.3882
23.1711
21.9207
20.6566
19.3959
18.1562
16.9587
15.8278
14.7739
13.7949
12.881
12.0206
11.2021
10.4156
9.65268
8.90704
8.17374
7.44915
6.7306
6.01623
5.30468
4.59503
3.88664
3.17907
2.47205
1.76539
1.05898
0.352716
34.1471
33.5352
32.9127
32.2692
31.6002
30.9025
30.1708
29.3967
28.5679
27.6684
26.6817
25.5983
24.4256
23.1934
21.9277
20.6488
19.3738
18.1207
16.9121
15.7755
14.722
13.7474
12.8404
11.9874
11.176
10.3957
9.63796
8.89642
8.16626
7.444
6.72715
6.01397
5.30325
4.59415
3.88613
3.1788
2.47193
1.76536
1.05901
0.352807
34.2045
33.5802
32.9488
32.2992
31.6267
30.9277
30.1966
29.4245
28.5981
27.7004
26.7136
25.6264
24.4467
23.2059
21.9318
20.6446
19.3617
18.1011
16.8864
15.7467
14.6934
13.7214
12.8181
11.9692
11.1618
10.3848
9.62994
8.89063
8.16219
7.4412
6.72527
6.01274
5.30246
4.59367
3.88585
3.17865
2.47186
1.76534
1.05903
0.352858
34.2047
33.5805
32.949
32.2994
31.6269
30.9279
30.1969
29.4248
28.5984
27.7008
26.7139
25.6267
24.447
23.2063
21.9321
20.6449
19.362
18.1014
16.8866
15.7469
14.6936
13.7215
12.8182
11.9693
11.1618
10.3849
9.62996
8.89065
8.1622
7.4412
6.72527
6.01274
5.30246
4.59367
3.88585
3.17865
2.47186
1.76534
1.05903
0.352857
34.1478
33.5359
32.9134
32.2699
31.6009
30.9032
30.1716
29.3976
28.5688
27.6693
26.6828
25.5993
24.4266
23.1943
21.9286
20.6496
19.3747
18.1215
16.9128
15.7761
14.7224
13.7478
12.8406
11.9876
11.1761
10.3958
9.63802
8.89646
8.16629
7.44402
6.72716
6.01397
5.30325
4.59415
3.88613
3.1788
2.47192
1.76536
1.05901
0.352806
34.0381
33.4505
32.8457
32.2141
31.5522
30.8572
30.1248
29.3477
28.5147
27.6121
26.6262
25.5496
24.3898
23.1727
21.9222
20.6579
19.3971
18.1573
16.9597
15.8285
14.7745
13.7953
12.8814
12.0208
11.2023
10.4157
9.65277
8.9071
8.17378
7.44917
6.73062
6.01623
5.30468
4.59502
3.88663
3.17907
2.47205
1.76539
1.05898
0.352714
33.8843
33.3323
32.753
32.1388
31.4873
30.7968
30.0643
29.2836
28.4457
27.5397
26.5551
25.4873
24.3439
23.1456
21.9141
20.668
19.4248
18.2017
17.0182
15.8943
14.8403
13.8556
12.9333
12.0634
11.2359
10.4413
9.67173
8.92077
8.1834
7.45576
6.73502
6.01909
5.30648
4.59611
3.88725
3.17939
2.47218
1.76541
1.05893
0.3526
33.6991
33.1924
32.6455
32.0533
31.4152
30.7311
29.9994
29.2159
28.3737
27.4648
26.4821
25.4236
24.2966
23.1176
21.9055
20.6784
19.4533
18.2473
17.0779
15.9616
14.908
13.9182
12.9875
12.1081
11.2712
10.4682
9.69168
8.93513
8.19345
7.46262
6.73957
6.02201
5.30828
4.59718
3.88784
3.17968
2.47229
1.76541
1.05887
0.352488
33.4989
33.0452
32.5356
31.9685
31.3459
30.6698
29.9404
29.1554
28.3102
27.3994
26.4187
25.3684
24.2551
23.0927
21.8978
20.6874
19.4783
18.2871
17.1296
16.0201
14.9671
13.9732
13.0353
12.1476
11.3024
10.492
9.70918
8.94763
8.20211
7.46844
6.74335
6.02438
5.30969
4.59796
3.88822
3.17983
2.47231
1.76537
1.05879
0.352397
33.3036
32.9073
32.4372
31.8964
31.2901
30.6228
29.8969
29.1117
28.2648
27.3529
26.3739
25.3292
24.2256
23.075
21.8924
20.6941
19.4965
18.3157
17.1665
16.0617
15.0092
14.0123
13.0693
12.1754
11.3242
10.5083
9.72094
8.95579
8.20756
7.47192
6.74546
6.02556
5.31028
4.59818
3.88823
3.17973
2.47217
1.76523
1.05868
0.35234
33.1367
32.7972
32.3652
31.849
31.2578
30.5991
29.877
29.0928
28.2454
27.3329
26.3544
25.3122
24.213
23.0679
21.891
20.6982
19.5058
18.3296
17.184
16.0809
15.0283
14.0295
13.0835
12.1864
11.332
10.5135
9.7241
8.95745
8.2082
7.47191
6.74509
6.02501
5.30967
4.59759
3.88771
3.17928
2.4718
1.76495
1.05852
0.352315
33.0232
32.7349
32.3355
31.8388
31.2589
30.6065
29.8879
29.1053
28.2582
27.3451
26.3657
25.3223
24.2217
23.0748
21.8957
20.7003
19.5052
18.3266
17.179
16.0741
15.0199
14.02
13.0735
12.1763
11.3224
10.5047
9.71635
8.95084
8.20272
7.46747
6.74157
6.02227
5.30758
4.59601
3.88652
3.1784
2.47116
1.76449
1.05824
0.352286
32.9822
32.7417
32.3652
31.8784
31.3026
30.6524
29.9356
29.1546
28.3086
27.3953
26.4133
25.3648
24.2563
23.0994
21.9089
20.7016
19.4948
18.3055
17.149
16.0379
14.9804
13.9799
13.0352
12.1416
11.2923
10.4795
9.69578
8.93453
8.19008
7.45788
6.73441
6.01703
5.30378
4.5933
3.88461
3.17705
2.4702
1.7638
1.05775
0.352108
33.1427
32.8599
32.4532
31.946
31.3579
30.7013
29.9826
29.2024
28.3581
27.4454
26.4615
25.4073
24.2897
23.1209
21.9172
20.6964
19.4767
18.2758
17.1101
15.9931
14.9337
13.9349
12.9945
12.1068
11.2638
10.4572
9.67889
8.92212
8.18121
7.45171
6.73023
6.01427
5.30202
4.59221
3.88396
3.17668
2.46999
1.76367
1.05763
0.352005
33.1872
32.8469
32.4131
31.8939
31.3002
30.6402
29.9182
29.1349
28.2883
27.3754
26.3945
25.3474
24.2408
23.0862
21.8987
20.6948
19.4917
18.306
17.1529
16.0447
14.9898
13.9914
13.0481
12.155
11.3054
10.4918
9.70685
8.94414
8.19817
7.46452
6.73974
6.02122
5.30703
4.59577
3.88647
3.17845
2.47125
1.76458
1.05828
0.352263
33.3015
32.9052
32.4351
31.8943
31.2879
30.6205
29.8944
29.109
28.262
27.3499
26.3708
25.3261
24.2225
23.0721
21.8898
20.6918
19.4946
18.3141
17.1653
16.0607
15.0085
14.0117
13.0689
12.1751
11.3239
10.5082
9.72084
8.95572
8.20752
7.4719
6.74546
6.02557
5.31029
4.59819
3.88825
3.17975
2.47219
1.76524
1.05869