# vtk DataFile Version 2.0
I need something to put here
ASCII

DATASET STRUCTURED_GRID
DIMENSIONS 41 21 21
POINTS 18081 float
0.000000 0.000000 0.000000
0.100000 0.000000 0.000000
0.200000 0.000000 0.000000
0.300000 0.000000 0.000000
0.400000 0.000000 0.000000
0.500000 0.000000 0.000000
0.600000 0.000000 0.000000
0.700000 0.000000 0.000000
0.800000 0.000000 0.000000
0.900000 0.000000 0.000000
1.000000 0.000000 0.000000
1.100000 0.000000 0.000000
1.200000 0.000000 0.000000
1.300000 0.000000 0.000000
1.400000 0.000000 0.000000
1.500000 0.000000 0.000000
1.600000 0.000000 0.000000
1.700000 0.000000 0.000000
1.800000 0.000000 0.000000
1.900000 0.000000 0.000000
2.000000 0.000000 0.000000
2.100000 0.000000 0.000000
2.200000 0.000000 0.000000
2.300000 0.000000 0.000000
2.400000 0.000000 0.000000
2.500000 0.000000 0.000000
2.600000 0.000000 0.000000
2.700000 0.000000 0.000000
2.800000 0.000000 0.000000
2.900000 0.000000 0.000000
3.000000 0.000000 0.000000
3.100000 0.000000 0.000000
3.200000 0.000000 0.000000
3.300000 0.000000 0.000000
3.400000 0.000000 0.000000
3.500000 0.000000 0.000000
3.600000 0.000000 0.000000
3.700000 0.000000 0.000000
3.800000 0.000000 0.000000
3.900000 0.000000 0.000000
4.000000 0.000000 0.000000
0.000000 0.100000 0.000000
0.100000 0.100000 0.000000
0.200000 0.100000 0.000000
0.300000 0.100000 0.000000
0.400000 0.100000 0.000000
0.500000 0.100000 0.000000
0.600000 0.100000 0.000000
0.700000 0.100000 0.000000
0.800000 0.100000 0.000000
0.900000 0.100000 0.000000
1.000000 0.100000 0.000000
1.100000 0.100000 0.000000
1.200000 0.100000 0.000000
1.300000 0.100000 0.000000
1.400000 0.100000 0.000000
1.500000 0.100000 0.000000
1.600000 0.100000 0.000000
1.700000 0.100000 0.000000
1.800000 0.100000 0.000000
1.900000 0.100000 0.000000
2.000000 0.100000 0.000000
2.100000 0.100000 0.000000
2.200000 0.100000 0.000000
2.300000 0.100000 0.000000
2.400000 0.100000 0.000000
2.500000 0.100000 0.000000
2.600000 0.100000 0.000000
2.700000 0.100000 0.000000
2.800000 0.100000 0.000000
2.900000 0.100000 0.000000
3.000000 0.100000 0.000000
3.100000 0.100000 0.000000
3.200000 0.100000 0.000000
3.300000 0.100000 0.000000
3.400000 0.100000 0.000000
3.500000 0.100000 0.000000
3.600000 0.100000 0.000000
3.700000 0.100000 0.000000
3.800000 0.100000 0.000000
3.900000 0.100000 0.000000
4.000000 0.100000 0.000000
0.000000 0.200000 0.000000
0.100000 0.200000 0.000000
0.200000 0.200000 0.000000
0.300000 0.200000 0.000000
0.400000 0.200000 0.000000
0.500000 0.200000 0.000000
0.600000 0.200000 0.000000
0.700000 0.200000 0.000000
0.800000 0.200000 0.000000
0.900000 0.200000 0.000000
1.000000 0.200000 0.000000
1.100000 0.200000 0.000000
1.200000 0.200000 0.000000
1.300000 0.200000 0.000000
1.400000 0.200000 0.000000
1.500000 0.200000 0.000000
1.600000 0.200000 0.000000
1.700000 0.200000 0.000000
1.800000 0.200000 0.000000
1.900000 0.200000 0.000000
2.000000 0.200000 0.000000
2.100000 0.200000 0.000000
2.200000 0.200000 0.000000
2.300000 0.200000 0.000000
2.400000 0.200000 0.000000
2.500000 0.200000 0.000000
2.600000 0.200000 0.000000
2.700000 0.200000 0.000000
2.800000 0.200000 0.000000
2.900000 0.200000 0.000000
3.000000 0.200000 0.000000
3.100000 0.200000 0.000000
3.200000 0.200000 0.000000
3.300000 0.200000 0.000000
3.400000 0.200000 0.000000
3.500000 0.200000 0.000000
3.600000 0.200000 0.000000
3.700000 0.200000 0.000000
3.800000 0.200000 0.000000
3.900000 0.200000 0.000000
4.000000 0.200000 0.000000
0.000000 0.300000 0.000000
0.100000 0.300000 0.000000
0.200000 0.300000 0.000000
0.300000 0.300000 0.000000
0.400000 0.300000 0.000000
0.500000 0.300000 0.000000
0.600000 0.300000 0.000000
0.700000 0.300000 0.000000
0.800000 0.300000 0.000000
0.900000 0.300000 0.000000
1.000000 0.300000 0.000000
1.100000 0.300000 0.000000
1.200000 0.300000 0.000000
1.300000 0.300000 0.000000
1.400000 0.300000 0.000000
1.500000 0.300000 0.000000
1.600000 0.300000 0.000000
1.700000 0.300000 0.000000
1.800000 0.300000 0.000000
1.900000 0.300000 0.000000
2.000000 0.300000 0.000000
2.100000 0.300000 0.000000
2.200000 0.300000 0.000000
2.300000 0.300000 0.000000
2.400000 0.300000 0.000000
2.500000 0.300000 0.000000
2.600000 0.300000 0.000000
2.700000 0.300000 0.000000
2.800000 0.300000 0.000000
2.900000 0.300000 0.000000
3.000000 0.300000 0.000000
3.100000 0.300000 0.000000
3.200000 0.300000 0.000000
3.300000 0.300000 0.000000
3.400000 0.300000 0.000000
3.500000 0.300000 0.000000
3.600000 0.300000 0.000000
3.700000 0.300000 0.000000
3.800000 0.300000 0.000000
3.900000 0.300000 0.000000
4.000000 0.300000 0.000000
0.000000 0.400000 0.000000
0.100000 0.400000 0.000000
0.200000 0.400000 0.000000
0.300000 0.400000 0.000000
0.400000 0.400000 0.000000
0.500000 0.400000 0.000000
0.600000 0.400000 0.000000
0.700000 0.400000 0.000000
0.800000 0.400000 0.000000
0.900000 0.400000 0.000000
1.000000 0.400000 0.000000
1.100000 0.400000 0.000000
1.200000 0.400000 0.000000
1.300000 0.400000 0.000000
1.400000 0.400000 0.000000
1.500000 0.400000 0.000000
1.600000 0.400000 0.000000
1.700000 0.400000 0.000000
1.800000 0.400000 0.000000
1.900000 0.400000 0.000000
2.000000 0.400000 0.000000
2.100000 0.400000 0.000000
2.200000 0.400000 0.000000
2.300000 0.400000 0.000000
2.400000 0.400000 0.000000
2.500000 0.400000 0.000000
2.600000 0.400000 0.000000
2.700000 0.400000 0.000000
2.800000 0.400000 0.000000
2.900000 0.400000 0.000000
3.000000 0.400000 0.000000
3.100000 0.400000 0.000000
3.200000 0.400000 0.000000
3.300000 0.400000 0.000000
3.400000 0.400000 0.000000
3.500000 0.400000 0.000000
3.600000 0.400000 0.000000
3.700000 0.400000 0.000000
3.800000 0.400000 0.000000
3.900000 0.400000 0.000000
4.000000 0.400000 0.000000
0.000000 0.500000 0.000000
0.100000 0.500000 0.000000
0.200000 0.500000 0.000000
0.300000 0.500000 0.000000
0.400000 0.500000 0.000000
0.500000 0.500000 0.000000
0.600000 0.500000 0.000000
0.700000 0.500000 0.000000
0.800000 0.500000 0.000000
0.900000 0.500000 0.000000
1.000000 0.500000 0.000000
1.100000 0.500000 0.000000
1.200000 0.500000 0.000000
1.300000 0.500000 0.000000
1.400000 0.500000 0.000000
1.500000 0.500000 0.000000
1.600000 0.500000 0.000000
1.700000 0.500000 0.000000
1.800000 0.500000 0.000000
1.900000 0.500000 0.000000
2.000000 0.500000 0.000000
2.100000 0.500000 0.000000
2.200000 0.500000 0.000000
2.300000 0.500000 0.000000
2.400000 0.500000 0.000000
2.500000 0.500000 0.000000
2.600000 0.500000 0.000000
2.700000 0.500000 0.000000
2.800000 0.500000 0.000000
2.900000 0.500000 0.000000
3.000000 0.500000 0.000000
3.100000 0.500000 0.000000
3.200000 0.500000 0.000000
3.300000 0.500000 0.000000
3.400000 0.500000 0.000000
3.500000 0.500000 0.000000
3.600000 0.500000 0.000000
3.700000 0.500000 0.000000
3.800000 0.500000 0.000000
3.900000 0.500000 0.000000
4.000000 0.500000 0.000000
0.000000 0.600000 0.000000
0.100000 0.600000 0.000000
0.200000 0.600000 0.000000
0.300000 0.600000 0.000000
0.400000 0.600000 0.000000
0.500000 0.600000 0.000000
0.600000 0.600000 0.000000
0.700000 0.600000 0.000000
0.800000 0.600000 0.000000
0.900000 0.600000 0.000000
1.000000 0.600000 0.000000
1.100000 0.600000 0.000000
1.200000 0.600000 0.000000
1.300000 0.600000 0.000000
1.400000 0.600000 0.000000
1.500000 0.600000 0.000000
1.600000 0.600000 0.000000
1.700000 0.600000 0.000000
1.800000 0.600000 0.000000
1.900000 0.600000 0.000000
2.000000 0.600000 0.000000
2.100000 0.600000 0.000000
2.200000 0.600000 0.000000
2.300000 0.600000 0.000000
2.400000 0.600000 0.000000
2.500000 0.600000 0.000000
2.600000 0.600000 0.000000
2.700000 0.600000 0.000000
2.800000 0.600000 0.000000
2.900000 0.600000 0.000000
3.000000 0.600000 0.000000
3.100000 0.600000 0.000000
3.200000 0.600000 0.000000
3.300000 0.600000 0.000000
3.400000 0.600000 0.000000
3.500000 0.600000 0.000000
3.600000 0.600000 0.000000
3.700000 0.600000 0.000000
3.800000 0.600000 0.000000
3.900000 0.600000 0.000000
4.000000 0.600000 0.000000
0.000000 0.700000 0.000000
0.100000 0.700000 0.000000
0.200000 0.700000 0.000000
0.300000 0.700000 0.000000
0.400000 0.700000 0.000000
0.500000 0.700000 0.000000
0.600000 0.700000 0.000000
0.700000 0.700000 0.000000
0.800000 0.700000 0.000000
0.900000 0.700000 0.000000
1.000000 0.700000 0.000000
1.100000 0.700000 0.000000
1.200000 0.700000 0.000000
1.300000 0.700000 0.000000
1.400000 0.700000 0.000000
1.500000 0.700000 0.000000
1.600000 0.700000 0.000000
1.700000 0.700000 0.000000
1.800000 0.700000 0.000000
1.900000 0.700000 0.000000
2.000000 0.700000 0.000000
2.100000 0.700000 0.000000
2.200000 0.700000 0.000000
2.300000 0.700000 0.000000
2.400000 0.700000 0.000000
2.500000 0.700000 0.000000
2.600000 0.700000 0.000000
2.700000 0.700000 0.000000
2.800000 0.700000 0.000000
2.900000 0.700000 0.000000
3.000000 0.700000 0.000000
3.100000 0.700000 0.000000
3.200000 0.700000 0.000000
3.300000 0.700000 0.000000
3.400000 0.700000 0.000000
3.500000 0.700000 0.000000
3.600000 0.700000 0.000000
3.700000 0.700000 0.000000
3.800000 0.700000 0.000000
3.900000 0.700000 0.000000
4.000000 0.700000 0.000000
0.000000 0.800000 0.000000
0.100000 0.800000 0.000000
0.200000 0.800000 0.000000
0.300000 0.800000 0.000000
0.400000 0.800000 0.000000
0.500000 0.800000 0.000000
0.600000 0.800000 0.000000
0.700000 0.800000 0.000000
0.800000 0.800000 0.000000
0.900000 0.800000 0.000000
1.000000 0.800000 0.000000
1.100000 0.800000 0.000000
1.200000 0.800000 0.000000
1.300000 0.800000 0.000000
1.400000 0.800000 0.000000
1.500000 0.800000 0.000000
1.600000 0.800000 0.000000
1.700000 0.800000 0.000000
1.800000 0.800000 0.000000
1.900000 0.800000 0.000000
2.000000 0.800000 0.000000
2.100000 0.800000 0.000000
2.200000 0.800000 0.000000
2.300000 0.800000 0.000000
2.400000 0.800000 0.000000
2.500000 0.800000 0.000000
2.600000 0.800000 0.000000
2.700000 0.800000 0.000000
2.800000 0.800000 0.000000
2.900000 0.800000 0.000000
3.000000 0.800000 0.000000
3.100000 0.800000 0.000000
3.200000 0.800000 0.000000
3.300000 0.800000 0.000000
3.400000 0.800000 0.000000
3.500000 0.800000 0.000000
3.600000 0.800000 0.000000
[...]
CELL_DATA 16000
SCALARS pressure float 1
LOOKUP_TABLE default
26.2592
26.0766
25.7385
25.2873
24.7563
24.1696
23.5444
22.8925
22.2222
21.5392
20.8475
20.1497
19.4478
18.743
18.0362
17.3282
16.6193
15.9102
15.2009
14.4918
13.783
13.0745
12.3665
11.6587
10.9513
10.2442
9.53724
8.83046
8.12381
7.41725
6.71075
6.0043
5.29787
4.59147
3.88508
3.17869
2.47231
1.76594
1.05956
0.353185
26.3178
26.1079
25.7552
25.2962
24.7609
24.1719
23.5454
22.8929
22.2222
21.5391
20.8473
20.1496
19.4476
18.7428
18.0361
17.3281
16.6193
15.9101
15.2009
14.4918
13.783
13.0745
12.3664
11.6587
10.9513
10.2442
9.53724
8.83046
8.12381
7.41725
6.71075
6.0043
5.29788
4.59147
3.88508
3.17869
2.47231
1.76594
1.05956
0.353185
26.4379
26.1885
25.809
25.332
24.7847
24.1877
23.5559
22.8998
22.2269
21.5422
20.8494
20.1509
19.4486
18.7434
18.0365
17.3283
16.6193
15.91
15.2007
14.4916
13.7828
13.0743
12.3663
11.6586
10.9512
10.2441
9.53717
8.83042
8.12378
7.41723
6.71074
6.00429
5.29787
4.59147
3.88508
3.17869
2.47231
1.76594
1.05956
0.353185
26.5939
26.3001
25.8873
25.3863
24.8221
24.2134
23.5735
22.9118
22.235
21.5477
20.8532
20.1535
19.4503
18.7446
18.0372
17.3287
16.6195
15.91
15.2005
14.4913
13.7824
13.074
12.366
11.6583
10.951
10.2439
9.53705
8.83033
8.12372
7.41719
6.71071
6.00427
5.29786
4.59146
3.88507
3.17869
2.47231
1.76593
1.05956
0.353184
26.7636
26.4263
25.9786
25.4513
24.8678
24.2453
23.5956
22.9271
22.2455
21.555
20.8582
20.157
19.4528
18.7463
18.0383
17.3293
16.6197
15.9099
15.2002
14.4909
13.782
13.0736
12.3656
11.658
10.9507
10.2437
9.53688
8.83021
8.12363
7.41713
6.71067
6.00424
5.29784
4.59145
3.88507
3.17869
2.47231
1.76593
1.05956
0.353184
26.9291
26.5529
26.0724
25.5192
24.9164
24.2796
23.6196
22.9438
22.2572
21.5631
20.8639
20.161
19.4556
18.7482
18.0395
17.33
16.62
15.9098
15.1999
14.4904
13.7814
13.073
12.3651
11.6576
10.9504
10.2434
9.53669
8.83006
8.12353
7.41706
6.71062
6.00421
5.29782
4.59144
3.88506
3.17868
2.47231
1.76593
1.05956
0.353184
27.0765
26.6681
26.1591
25.583
24.9624
24.3125
23.6429
22.9601
22.2686
21.5711
20.8695
20.165
19.4584
18.7502
18.0408
17.3307
16.6202
15.9097
15.1995
14.4899
13.7809
13.0724
12.3646
11.6571
10.95
10.2432
9.53649
8.82992
8.12343
7.41698
6.71057
6.00418
5.2978
4.59142
3.88505
3.17868
2.4723
1.76593
1.05956
0.353183
27.1956
26.7624
26.231
25.6364
25.0014
24.3405
23.6628
22.9742
22.2785
21.5781
20.8745
20.1686
19.4609
18.752
18.042
17.3314
16.6205
15.9096
15.1992
14.4894
13.7803
13.0719
12.3641
11.6568
10.9497
10.2429
9.53631
8.82979
8.12333
7.41692
6.71053
6.00415
5.29778
4.59141
3.88504
3.17867
2.4723
1.76593
1.05956
0.353183
27.2788
26.829
26.2822
25.6748
25.0296
24.3609
23.6774
22.9846
22.2858
21.5832
20.8781
20.1712
19.4629
18.7534
18.0429
17.3319
16.6207
15.9095
15.1989
14.489
13.7799
13.0715
12.3638
11.6565
10.9495
10.2428
9.53618
8.8297
8.12327
7.41688
6.7105
6.00413
5.29777
4.5914
3.88504
3.17867
2.4723
1.76593
1.05956
0.353182
27.3216
26.8634
26.3088
25.6948
25.0444
24.3716
23.6851
22.99
22.2897
21.586
20.8801
20.1727
19.4639
18.7541
18.0435
17.3323
16.6208
15.9096
15.1988
14.4889
13.7797
13.0714
12.3636
11.6563
10.9494
10.2427
9.53612
8.82966
8.12324
7.41686
6.71049
6.00413
5.29776
4.5914
3.88504
3.17867
2.4723
1.76593
1.05956
0.353182
27.3216
26.8634
26.3089
25.6948
25.0444
24.3716
23.6851
22.9901
22.2897
21.586
20.8802
20.1727
19.464
18.7542
18.0436
17.3324
16.6209
15.9096
15.1989
14.489
13.7798
13.0714
12.3637
11.6564
10.9494
10.2427
9.53614
8.82967
8.12325
7.41687
6.7105
6.00413
5.29777
4.5914
3.88504
3.17867
2.4723
1.76593
1.05955
0.353181
27.2789
26.829
26.2823
25.6748
25.0297
24.361
23.6775
22.9847
22.2859
21.5834
20.8783
20.1714
19.4631
18.7536
18.0432
17.3322
16.6209
15.9098
15.1992
14.4893
13.7801
13.0717
12.3639
11.6566
10.9496
10.2428
9.53625
8.82975
8.12331
7.41691
6.71052
6.00415
5.29778
4.59141
3.88504
3.17867
2.4723
1.76593
1.05955
0.35318
27.1957
26.7625
26.2311
25.6365
25.0016
24.3407
23.663
22.9744
22.2787
21.5783
20.8747
20.1689
19.4613
18.7524
18.0425
17.3319
16.6209
15.9101
15.1996
14.4898
13.7806
13.0722
12.3643
11.6569
10.9499
10.2431
9.53641
8.82987
8.1234
7.41697
6.71057
6.00418
5.2978
4.59142
3.88505
3.17868
2.4723
1.76593
1.05955
0.35318
27.0767
26.6682
26.1592
25.5831
24.9626
24.3127
23.6431
22.9604
22.2689
21.5714
20.8699
20.1655
19.4589
18.7508
18.0414
17.3313
16.6208
15.9103
15.2001
14.4904
13.7813
13.0728
12.3649
11.6574
10.9502
10.2433
9.53662
8.83002
8.12351
7.41705
6.71062
6.00421
5.29782
4.59144
3.88506
3.17868
2.47231
1.76593
1.05955
0.353179
26.9293
26.5531
26.0725
25.5194
24.9165
24.2798
23.6199
22.9441
22.2575
21.5635
20.8643
20.1616
19.4562
18.7489
18.0403
17.3307
16.6207
15.9105
15.2006
14.491
13.782
13.0735
12.3655
11.6579
10.9506
10.2436
9.53685
8.83019
8.12363
7.41713
6.71068
6.00425
5.29785
4.59145
3.88507
3.17869
2.47231
1.76593
1.05955
0.353178
26.7638
26.4265
25.9788
25.4514
24.868
24.2455
23.5959
22.9274
22.2459
21.5554
20.8587
20.1576
19.4535
18.7471
18.0391
17.3301
16.6205
15.9107
15.201
14.4916
13.7826
13.074
12.366
11.6583
10.951
10.2439
9.53707
8.83035
8.12374
7.41721
6.71073
6.00429
5.29787
4.59147
3.88508
3.17869
2.47231
1.76593
1.05955
0.353178
26.5941
26.3003
25.8875
25.3865
24.8223
24.2136
23.5738
22.9121
22.2354
21.5482
20.8537
20.1542
19.4511
18.7454
18.0381
17.3295
16.6203
15.9108
15.2013
14.492
13.7831
13.0745
12.3664
11.6587
10.9513
10.2442
9.53724
8.83048
8.12383
7.41727
6.71077
6.00432
5.29789
4.59148
3.88508
3.17869
2.47231
1.76593
1.05955
0.353178
26.4381
26.1887
25.8092
25.3322
24.7849
24.188
23.5562
22.9002
22.2273
21.5427
20.8499
20.1516
19.4493
18.7442
18.0373
17.3291
16.6202
15.9109
15.2015
14.4923
13.7834
13.0749
12.3667
11.659
10.9515
10.2443
9.53737
8.83057
8.1239
7.41732
6.7108
6.00433
5.2979
4.59148
3.88509
3.1787
2.47231
1.76593
1.05955
0.353179
26.318
26.1081
25.7554
25.2964
24.7611
24.1722
23.5457
22.8932
22.2226
21.5396
20.8479
20.1502
19.4484
18.7436
18.0369
17.3289
16.6201
15.9109
15.2016
14.4925
13.7836
13.075
12.3669
11.6591
10.9516
10.2444
9.53743
8.83061
8.12393
7.41733
6.71081
6.00434
5.2979
4.59149
3.88509
3.1787
2.47231
1.76593
1.05955
0.353181
26.2595
26.0768
25.7387
25.2875
24.7565
24.1699
23.5447
22.8928
22.2226
21.5397
20.848
20.1504
19.4485
18.7437
18.037
17.329
16.6202
15.911
15.2017
14.4925
13.7836
13.0751
12.3669
11.6591
10.9516
10.2444
9.53742
8.83061
8.12392
7.41733
6.71081
6.00434
5.2979
4.59148
3.88508
3.17869
2.47231
1.76593
1.05955
0.353182
26.3178
26.1079
25.7552
25.2962
24.7609
24.1719
23.5454
22.8929
22.2222
21.5391
20.8473
20.1496
19.4476
18.7428
18.0361
17.3281
16.6193
15.9101
15.2009
14.4918
13.783
13.0745
12.3664
11.6587
10.9513
10.2442
9.53724
8.83046
8.12381
7.41725
6.71075
6.0043
5.29788
4.59147
3.88508
3.17869
2.47231
1.76594
1.05956
0.353185
26.3685
26.1188
25.7492
25.2845
24.7485
24.1608
23.5362
22.8856
22.2166
21.5348
20.8441
20.1471
19.4459
18.7416
18.0352
17.3274
16.6189
15.9099
15.2008
14.4918
13.783
13.0746
12.3665
11.6588
10.9514
10.2443
9.53731
8.83052
8.12386
7.41729
6.71078
6.00432
5.29789
4.59148
3.88509
3.1787
2.47232
1.76594
1.05956
0.353186
26.4886
26.1899
25.7905
25.308
24.7617
24.168
23.5399
22.8873
22.2172
21.5349
20.8439
20.1469
19.4456
18.7413
18.0349
17.3272
16.6187
15.9097
15.2006
14.4916
13.7829
13.0745
12.3665
11.6588
10.9514
10.2442
9.5373
8.83052
8.12386
7.41729
6.71079
6.00432
5.29789
4.59148
3.88509
3.1787
2.47232
1.76594
1.05956
0.353186
26.6505
26.2979
25.8622
25.3553
24.7927
24.1882
23.553
22.8957
22.2226
21.5383
20.8461
20.1483
19.4465
18.7418
18.0353
17.3274
16.6187
15.9096
15.2004
14.4914
13.7827
13.0743
12.3663
11.6586
10.9513
10.2441
9.53723
8.83047
8.12383
7.41727
6.71077
6.00432
5.29789
4.59148
3.88509
3.1787
2.47232
1.76594
1.05956
0.353186
26.8285
26.4235
25.9501
25.4163
24.8346
24.2167
23.5723
22.9087
22.2313
21.5442
20.85
20.1509
19.4482
18.743
18.036
17.3277
16.6188
15.9095
15.2002
14.4911
13.7823
13.0739
12.366
11.6583
10.951
10.244
9.5371
8.83038
8.12376
7.41723
6.71074
6.0043
5.29788
4.59148
3.88508
3.1787
2.47232
1.76594
1.05956
0.353187
27.0025
26.5508
26.0421
25.4819
24.8808
24.2489
23.5945
22.924
22.2418
21.5513
20.8549
20.1543
19.4505
18.7445
18.0369
17.3283
16.6189
15.9094
15.1999
14.4907
13.7818
13.0735
12.3656
11.658
10.9508
10.2438
9.53695
8.83027
8.12368
7.41717
6.71071
6.00427
5.29786
4.59147
3.88508
3.1787
2.47232
1.76594
1.05956
0.353187
27.1574
26.6669
26.1279
25.5442
24.9254
24.2804
23.6166
22.9393
22.2524
21.5586
20.86
20.1578
19.453
18.7462
18.038
17.3288
16.6191
15.9093
15.1996
14.4902
13.7814
13.073
12.3652
11.6577
10.9505
10.2435
9.53678
8.83015
8.1236
7.41711
6.71067
6.00425
5.29785
4.59146
3.88507
3.17869
2.47232
1.76594
1.05956
0.353188
27.2823
26.7622
26.1993
25.5967
24.9634
24.3076
23.6358
22.9527
22.2617
21.5651
20.8645
20.161
19.4552
18.7478
18.039
17.3294
16.6193
15.9092
15.1993
14.4898
13.7809
13.0726
12.3648
11.6574
10.9502
10.2434
9.53664
8.83004
8.12352
7.41706
6.71063
6.00422
5.29783
4.59145
3.88507
3.17869
2.47232
1.76594
1.05957
0.353188
27.3695
26.8295
26.2502
25.6345
24.991
24.3275
23.6499
22.9627
22.2687
21.57
20.868
20.1634
19.457
18.749
18.0398
17.3299
16.6195
15.9092
15.1991
14.4896
13.7806
13.0723
12.3645
11.6571
10.9501
10.2432
9.53653
8.82996
8.12347
7.41702
6.71061
6.00421
5.29782
4.59144
3.88507
3.17869
2.47232
1.76594
1.05957
0.353188
27.4143
26.8642
26.2767
25.6543
25.0055
24.3379
23.6574
22.968
22.2724
21.5726
20.8698
20.1648
19.4579
18.7497
18.0403
17.3302
16.6197
15.9092
15.199
14.4894
13.7805
13.0722
12.3644
11.657
10.95
10.2431
9.53649
8.82993
8.12345
7.41701
6.7106
6.0042
5.29782
4.59144
3.88506
3.17869
2.47232
1.76594
1.05957
0.353188
27.4143
26.8643
26.2767
25.6543
25.0055
24.338
23.6574
22.968
22.2725
21.5727
20.8699
20.1648
19.458
18.7497
18.0404
17.3303
16.6198
15.9093
15.1991
14.4895
13.7806
13.0722
12.3644
11.6571
10.95
10.2432
9.53651
8.82995
8.12346
7.41702
6.7106
6.00421
5.29782
4.59144
3.88507
3.17869
2.47232
1.76594
1.05957
0.353188
27.3696
26.8295
26.2503
25.6346
24.9911
24.3276
23.65
22.9628
22.2688
21.5701
20.8681
20.1636
19.4572
18.7492
18.0401
17.3301
16.6198
15.9094
15.1993
14.4898
13.7808
13.0725
12.3646
11.6572
10.9501
10.2433
9.53659
8.83001
8.12351
7.41705
6.71063
6.00423
5.29783
4.59145
3.88507
3.17869
2.47232
1.76594
1.05957
0.353187
27.2824
26.7623
26.1994
25.5968
24.9635
24.3077
23.636
22.9529
22.2619
21.5654
20.8648
20.1613
19.4556
18.7481
18.0394
17.3298
16.6198
15.9096
15.1997
14.4902
13.7812
13.0729
12.365
11.6575
10.9504
10.2435
9.53674
8.83012
8.12358
7.41711
6.71067
6.00425
5.29785
4.59146
3.88508
3.1787
2.47232
1.76594
1.05957
0.353186
27.1575
26.6671
26.128
25.5443
24.9255
24.2806
23.6168
22.9395
22.2526
21.5589
20.8603
20.1582
19.4534
18.7467
18.0386
17.3294
16.6197
15.9098
15.2001
14.4907
13.7818
13.0734
12.3654
11.6579
10.9507
10.2437
9.53692
8.83025
8.12368
7.41717
6.71071
6.00428
5.29787
4.59147
3.88508
3.1787
2.47232
1.76594
1.05957
0.353185
27.0026
26.5509
26.0423
25.482
24.8809
24.2491
23.5948
22.9242
22.2421
21.5517
20.8553
20.1548
19.4511
18.7452
18.0376
17.3289
16.6196
15.91
15.2005
14.4912
13.7823
13.0739
12.3659
11.6583
10.951
10.244
9.53711
8.83039
8.12378
7.41724
6.71076
6.00431
5.29789
4.59149
3.88509
3.1787
2.47232
1.76594
1.05957
0.353184
26.8287
26.4237
25.9503
25.4165
24.8348
24.217
23.5726
22.909
22.2317
21.5446
20.8505
20.1515
19.4489
18.7437
18.0367
17.3285
16.6195
15.9102
15.2008
14.4917
13.7828
13.0744
12.3664
11.6587
10.9513
10.2442
9.53728
8.83052
8.12387
7.41731
6.7108
6.00434
5.29791
4.5915
3.8851
3.17871
2.47232
1.76594
1.05956
0.353183
26.6507
26.2981
25.8624
25.3556
24.7929
24.1885
23.5533
22.8961
22.223
21.5388
20.8466
20.1489
19.4471
18.7426
18.036
17.3282
16.6195
15.9104
15.2011
14.4921
13.7832
13.0748
12.3667
11.659
10.9515
10.2444
9.53742
8.83062
8.12394
7.41735
6.71083
6.00436
5.29792
4.5915
3.8851
3.17871
2.47232
1.76594
1.05956
0.353182
26.4888
26.1901
25.7907
25.3082
24.7619
24.1682
23.5402
22.8876
22.2176
21.5353
20.8444
20.1475
19.4463
18.7421
18.0358
17.3281
16.6195
15.9105
15.2014
14.4923
13.7835
13.075
12.3669
11.6592
10.9517
10.2445
9.53749
8.83067
8.12398
7.41738
6.71085
6.00437
5.29792
4.5915
3.8851
3.17871
2.47232
1.76594
1.05956
0.353182
26.3687
26.119
25.7494
25.2847
24.7487
24.1611
23.5365
22.8859
22.217
21.5353
20.8446
20.1478
19.4466
18.7423
18.036
17.3283
16.6197
15.9107
15.2015
14.4924
13.7836
13.0751
12.367
11.6592
10.9517
10.2445
9.5375
8.83067
8.12397
7.41737
6.71084
6.00436
5.29792
4.5915
3.88509
3.1787
2.47232
1.76593
1.05956
0.353182
26.318
26.1081
25.7554
25.2964
24.7611
24.1721
23.5457
22.8932
22.2226
21.5396
20.8479
20.1502
19.4483
18.7436
18.0369
17.3289
16.6201
15.9109
15.2016
14.4924
13.7835
13.075
12.3669
11.6591
10.9516
10.2444
9.53741
8.8306
8.12392
7.41733
6.71081
6.00434
5.2979
4.59148
3.88508
3.17869
2.47231
1.76593
1.05955
0.353181
26.4379
26.1885
25.809
25.332
24.7847
24.1877
23.5559
22.8998
22.2269
21.5422
20.8494
20.1509
19.4486
18.7434
18.0365
17.3283
16.6193
15.91
15.2007
14.4916
13.7828
13.0743
12.3663
11.6586
10.9512
10.2441
9.53717
8.83042
8.12378
7.41723
6.71074
6.00429
5.29787
4.59147
3.88508
3.17869
2.47231
1.76594
1.05956
0.353185
26.4886
26.1899
25.7905
25.308
24.7617
24.168
23.5399
22.8873
22.2172
21.5349
20.8439
20.1469
19.4456
18.7413
18.0349
17.3272
16.6187
15.9097
15.2006
14.4916
13.7829
13.0745
12.3665
11.6588
10.9514
10.2442
9.5373
8.83052
8.12386
7.41729
6.71079
6.00432
5.29789
4.59148
3.88509
3.1787
2.47232
1.76594
1.05956
0.353186
26.6092
26.256
25.8239
25.3232
24.7672
24.1686
23.5383
22.8848
22.2146
21.5325
20.8419
20.1452
19.4443
18.7403
18.0342
17.3267
16.6183
15.9094
15.2004
14.4915
13.7829
13.0745
12.3665
11.6588
10.9514
10.2443
9.53734
8.83056
8.12389
7.41732
6.71081
6.00434
5.29791
4.59149
3.88509
3.1787
2.47232
1.76594
1.05956
0.353186
26.7748
26.3627
25.8915
25.3654
24.7932
24.1843
23.5476
22.8902
22.2176
21.5341
20.8427
20.1456
19.4444
18.7402
18.0341
17.3265
16.6181
15.9092
15.2002
14.4913
13.7826
13.0743
12.3663
11.6587
10.9513
10.2442
9.53731
8.83054
8.12388
7.41731
6.71081
6.00434
5.29791
4.5915
3.8851
3.17871
2.47232
1.76594
1.05956
0.353186
26.9587
26.4892
25.9777
25.4235
24.8319
24.2099
23.5643
22.901
22.2246
21.5386
20.8455
20.1474
19.4455
18.7409
18.0344
17.3266
16.618
15.909
15.1999
14.4909
13.7823
13.074
12.3661
11.6585
10.9512
10.2441
9.53721
8.83047
8.12384
7.41728
6.71079
6.00433
5.2979
4.59149
3.8851
3.17871
2.47232
1.76594
1.05956
0.353187
27.1396
26.6186
26.0692
25.4875
24.8761
24.2401
23.5848
22.9148
22.2338
21.5447
20.8496
20.1501
19.4473
18.7421
18.0352
17.327
16.618
15.9088
15.1995
14.4905
13.7818
13.0736
12.3657
11.6582
10.9509
10.2439
9.53709
8.83038
8.12378
7.41724
6.71076
6.00431
5.29789
4.59149
3.88509
3.17871
2.47232
1.76594
1.05957
0.353188
27.301
26.7372
26.1552
25.549
24.9195
24.2704
23.6057
22.9291
22.2435
21.5513
20.8541
20.1532
19.4495
18.7436
18.036
17.3274
16.6181
15.9086
15.1991
14.49
13.7813
13.0731
12.3653
11.6579
10.9507
10.2437
9.53694
8.83028
8.12371
7.4172
6.71073
6.00429
5.29788
4.59148
3.88509
3.1787
2.47232
1.76594
1.05957
0.353189
27.4312
26.8346
26.2271
25.6012
24.9569
24.2968
23.6241
22.9418
22.2523
21.5573
20.8583
20.1562
19.4515
18.7449
18.0369
17.3279
16.6182
15.9084
15.1988
14.4896
13.7809
13.0727
12.365
11.6576
10.9505
10.2436
9.53682
8.83019
8.12364
7.41715
6.7107
6.00428
5.29787
4.59147
3.88509
3.1787
2.47232
1.76594
1.05957
0.353189
27.5222
26.9035
26.2785
25.6389
24.9841
24.3162
23.6378
22.9514
22.2589
21.5619
20.8615
20.1584
19.4531
18.7461
18.0377
17.3283
16.6184
15.9083
15.1985
14.4893
13.7806
13.0724
12.3647
11.6573
10.9503
10.2434
9.53672
8.83012
8.1236
7.41712
6.71068
6.00426
5.29786
4.59147
3.88508
3.1787
2.47232
1.76594
1.05957
0.35319
27.569
26.9392
26.3052
25.6587
24.9985
24.3264
23.645
22.9564
22.2624
21.5644
20.8633
20.1597
19.454
18.7467
18.0381
17.3286
16.6185
15.9083
15.1984
14.4891
13.7804
13.0723
12.3646
11.6572
10.9502
10.2434
9.53668
8.8301
8.12358
7.41711
6.71067
6.00426
5.29786
4.59147
3.88508
3.1787
2.47232
1.76594
1.05957
0.35319
27.569
26.9392
26.3053
25.6587
24.9985
24.3265
23.6451
22.9565
22.2625
21.5644
20.8633
20.1597
19.4541
18.7468
18.0382
17.3286
16.6186
15.9084
15.1985
14.4892
13.7805
13.0723
12.3646
11.6573
10.9502
10.2434
9.5367
8.83011
8.12359
7.41712
6.71068
6.00427
5.29786
4.59147
3.88508
3.1787
2.47232
1.76594
1.05957
0.35319
27.5223
26.9036
26.2786
25.639
24.9842
24.3163
23.6379
22.9515
22.259
21.5621
20.8617
20.1586
19.4533
18.7463
18.0379
17.3285
16.6186
15.9086
15.1988
14.4895
13.7807
13.0725
12.3648
11.6575
10.9504
10.2435
9.53678
8.83017
8.12363
7.41715
6.7107
6.00428
5.29787
4.59148
3.88509
3.1787
2.47232
1.76594
1.05957
0.353189
27.4313
26.8347
26.2272
25.6013
24.957
24.2969
23.6243
22.942
22.2525
21.5576
20.8586
20.1565
19.4519
18.7453
18.0373
17.3283
16.6187
15.9088
15.1991
14.4899
13.7812
13.073
12.3652
11.6577
10.9506
10.2437
9.53691
8.83027
8.1237
7.4172
6.71074
6.0043
5.29789
4.59149
3.88509
3.17871
2.47232
1.76594
1.05957
0.353188
27.3011
26.7373
26.1554
25.5491
24.9197
24.2706
23.6059
22.9293
22.2438
21.5516
20.8545
20.1536
19.4499
18.7441
18.0366
17.328
16.6187
15.9091
15.1996
14.4905
13.7817
13.0735
12.3656
11.6581
10.9509
10.2439
9.53707
8.83038
8.12379
7.41726
6.71078
6.00433
5.2979
4.5915
3.8851
3.17871
2.47232
1.76594
1.05957
0.353187
27.1398
26.6188
26.0694
25.4876
24.8763
24.2403
23.585
22.915
22.2341
21.545
20.85
20.1506
19.4479
18.7428
18.0358
17.3276
16.6187
15.9094
15.2001
14.491
13.7823
13.074
12.3661
11.6585
10.9512
10.2441
9.53724
8.8305
8.12387
7.41732
6.71082
6.00435
5.29792
4.59151
3.8851
3.17871
2.47232
1.76594
1.05957
0.353185
26.9589
26.4894
25.9779
25.4237
24.8321
24.2101
23.5646
22.9013
22.225
21.539
20.846
20.1479
19.4461
18.7416
18.0352
17.3274
16.6188
15.9097
15.2005
14.4915
13.7828
13.0745
12.3665
11.6588
10.9514
10.2443
9.53739
8.83061
8.12395
7.41737
6.71085
6.00437
5.29793
4.59151
3.88511
3.17871
2.47232
1.76594
1.05956
0.353184
26.775
26.3629
25.8917
25.3657
24.7934
24.1846
23.5479
22.8905
22.218
21.5346
20.8432
20.1462
19.445
18.741
18.0348
17.3273
16.6189
15.91
15.2009
14.4919
13.7832
13.0748
12.3668
11.6591
10.9516
10.2445
9.53749
8.83068
8.12399
7.4174
6.71087
6.00439
5.29794
4.59151
3.88511
3.17871
2.47232
1.76594
1.05956
0.353183
26.6094
26.2562
25.8242
25.3235
24.7674
24.1688
23.5386
22.8851
22.215
21.533
20.8424
20.1458
19.445
18.741
18.035
17.3275
16.6191
15.9102
15.2012
14.4922
13.7835
13.075
12.3669
11.6592
10.9517
10.2445
9.53753
8.8307
8.124
7.4174
6.71087
6.00438
5.29793
4.59151
3.8851
3.17871
2.47232
1.76594
1.05956
0.353183
26.4888
26.1901
25.7907
25.3082
24.7619
24.1682
23.5402
22.8876
22.2176
21.5353
20.8444
20.1475
19.4463
18.7421
18.0358
17.3281
16.6195
15.9105
15.2014
14.4923
13.7835
13.075
12.3669
11.6591
10.9517
10.2445
9.53748
8.83066
8.12397
7.41737
6.71084
6.00436
5.29792
4.5915
3.88509
3.1787
2.47231
1.76593
1.05956
0.353182
26.4381
26.1887
25.8092
25.3322
24.7849
24.188
23.5562
22.9002
22.2272
21.5426
20.8499
20.1515
19.4492
18.7442
18.0373
17.3291
16.6202
15.9108
15.2015
14.4923
13.7834
13.0748
12.3667
11.6589
10.9515
10.2443
9.53734
8.83054
8.12387
7.4173
6.71079
6.00432
5.29789
4.59148
3.88508
3.17869
2.47231
1.76593
1.05955
0.35318
26.5939
26.3001
25.8873
25.3863
24.8221
24.2134
23.5735
22.9118
22.235
21.5477
20.8532
20.1535
19.4503
18.7446
18.0372
17.3287
16.6195
15.91
15.2005
14.4913
13.7824
13.074
12.366
11.6583
10.951
10.2439
9.53705
8.83033
8.12372
7.41719
6.71071
6.00427
5.29786
4.59146
3.88507
3.17869
2.47231
1.76593
1.05956
0.353184
26.6505
26.2979
25.8622
25.3553
24.7927
24.1882
23.553
22.8957
22.2226
21.5383
20.8461
20.1483
19.4465
18.7418
18.0353
17.3274
16.6187
15.9096
15.2004
14.4914
13.7827
13.0743
12.3663
11.6586
10.9513
10.2441
9.53723
8.83047
8.12383
7.41727
6.71077
6.00432
5.29789
4.59148
3.88509
3.1787
2.47232
1.76594
1.05956
0.353186
26.7748
26.3627
25.8915
25.3654
24.7932
24.1843
23.5476
22.8902
22.2176
21.5341
20.8427
20.1456
19.4444
18.7402
18.0341
17.3265
16.6181
15.9092
15.2002
14.4913
13.7826
13.0743
12.3663
11.6587
10.9513
10.2442
9.53731
8.83054
8.12388
7.41731
6.71081
6.00434
5.29791
4.5915
3.8851
3.17871
2.47232
1.76594