# vtk DataFile Version 2.0
I need something to put here
ASCII

DATASET STRUCTURED_GRID
DIMENSIONS 41 21 21
POINTS 18081 float
0.000000 0.000000 0.000000
0.100000 0.000000 0.000000
0.200000 0.000000 0.000000
0.300000 0.000000 0.000000
0.400000 0.000000 0.000000
0.500000 0.000000 0.000000
0.600000 0.000000 0.000000
0.700000 0.000000 0.000000
0.800000 0.000000 0.000000
0.900000 0.000000 0.000000
1.000000 0.000000 0.000000
1.100000 0.000000 0.000000
1.200000 0.000000 0.000000
1.300000 0.000000 0.000000
1.400000 0.000000 0.000000
1.500000 0.000000 0.000000
1.600000 0.000000 0.000000
1.700000 0.000000 0.000000
1.800000 0.000000 0.000000
1.900000 0.000000 0.000000
2.000000 0.000000 0.000000
2.100000 0.000000 0.000000
2.200000 0.000000 0.000000
2.300000 0.000000 0.000000
2.400000 0.000000 0.000000
2.500000 0.000000 0.000000
2.600000 0.000000 0.000000
2.700000 0.000000 0.000000
2.800000 0.000000 0.000000
2.900000 0.000000 0.000000
3.000000 0.000000 0.000000
3.100000 0.000000 0.000000
3.200000 0.000000 0.000000
3.300000 0.000000 0.000000
3.400000 0.000000 0.000000
3.500000 0.000000 0.000000
3.600000 0.000000 0.000000
3.700000 0.000000 0.000000
3.800000 0.000000 0.000000
3.900000 0.000000 0.000000
4.000000 0.000000 0.000000
0.000000 0.100000 0.000000
0.100000 0.100000 0.000000
0.200000 0.100000 0.000000
0.300000 0.100000 0.000000
0.400000 0.100000 0.000000
0.500000 0.100000 0.000000
0.600000 0.100000 0.000000
0.700000 0.100000 0.000000
0.800000 0.100000 0.000000
0.900000 0.100000 0.000000
1.000000 0.100000 0.000000
1.100000 0.100000 0.000000
1.200000 0.100000 0.000000
1.300000 0.100000 0.000000
1.400000 0.100000 0.000000
1.500000 0.100000 0.000000
1.600000 0.100000 0.000000
1.700000 0.100000 0.000000
1.800000 0.100000 0.000000
1.900000 0.100000 0.000000
2.000000 0.100000 0.000000
2.100000 0.100000 0.000000
2.200000 0.100000 0.000000
2.300000 0.100000 0.000000
2.400000 0.100000 0.000000
2.500000 0.100000 0.000000
2.600000 0.100000 0.000000
2.700000 0.100000 0.000000
2.800000 0.100000 0.000000
2.900000 0.100000 0.000000
3.000000 0.100000 0.000000
3.100000 0.100000 0.000000
3.200000 0.100000 0.000000
3.300000 0.100000 0.000000
3.400000 0.100000 0.000000
3.500000 0.100000 0.000000
3.600000 0.100000 0.000000
3.700000 0.100000 0.000000
3.800000 0.100000 0.000000
3.900000 0.100000 0.000000
4.000000 0.100000 0.000000
0.000000 0.200000 0.000000
0.100000 0.200000 0.000000
0.200000 0.200000 0.000000
0.300000 0.200000 0.000000
0.400000 0.200000 0.000000
0.500000 0.200000 0.000000
0.600000 0.200000 0.000000
0.700000 0.200000 0.000000
0.800000 0.200000 0.000000
0.900000 0.200000 0.000000
1.000000 0.200000 0.000000
1.100000 0.200000 0.000000
1.200000 0.200000 0.000000
1.300000 0.200000 0.000000
1.400000 0.200000 0.000000
1.500000 0.200000 0.000000
1.600000 0.200000 0.000000
1.700000 0.200000 0.000000
1.800000 0.200000 0.000000
1.900000 0.200000 0.000000
2.000000 0.200000 0.000000
2.100000 0.200000 0.000000
2.200000 0.200000 0.000000
2.300000 0.200000 0.000000
2.400000 0.200000 0.000000
2.500000 0.200000 0.000000
2.600000 0.200000 0.000000
2.700000 0.200000 0.000000
2.800000 0.200000 0.000000
2.900000 0.200000 0.000000
3.000000 0.200000 0.000000
3.100000 0.200000 0.000000
3.200000 0.200000 0.000000
3.300000 0.200000 0.000000
3.400000 0.200000 0.000000
3.500000 0.200000 0.000000
3.600000 0.200000 0.000000
3.700000 0.200000 0.000000
3.800000 0.200000 0.000000
3.900000 0.200000 0.000000
4.000000 0.200000 0.000000
0.000000 0.300000 0.000000
0.100000 0.300000 0.000000
0.200000 0.300000 0.000000
0.300000 0.300000 0.000000
0.400000 0.300000 0.000000
0.500000 0.300000 0.000000
0.600000 0.300000 0.000000
0.700000 0.300000 0.000000
0.800000 0.300000 0.000000
0.900000 0.300000 0.000000
1.000000 0.300000 0.000000
1.100000 0.300000 0.000000
1.200000 0.300000 0.000000
1.300000 0.300000 0.000000
1.400000 0.300000 0.000000
1.500000 0.300000 0.000000
1.600000 0.300000 0.000000
1.700000 0.300000 0.000000
1.800000 0.300000 0.000000
1.900000 0.300000 0.000000
2.000000 0.300000 0.000000
2.100000 0.300000 0.000000
2.200000 0.300000 0.000000
2.300000 0.300000 0.000000
2.400000 0.300000 0.000000
2.500000 0.300000 0.000000
2.600000 0.300000 0.000000
2.700000 0.300000 0.000000
2.800000 0.300000 0.000000
2.900000 0.300000 0.000000
3.000000 0.300000 0.000000
3.100000 0.300000 0.000000
3.200000 0.300000 0.000000
3.300000 0.300000 0.000000
3.400000 0.300000 0.000000
3.500000 0.300000 0.000000
3.600000 0.300000 0.000000
3.700000 0.300000 0.000000
3.800000 0.300000 0.000000
3.900000 0.300000 0.000000
4.000000 0.300000 0.000000
0.000000 0.400000 0.000000
0.100000 0.400000 0.000000
0.200000 0.400000 0.000000
0.300000 0.400000 0.000000
0.400000 0.400000 0.000000
0.500000 0.400000 0.000000
0.600000 0.400000 0.000000
0.700000 0.400000 0.000000
0.800000 0.400000 0.000000
0.900000 0.400000 0.000000
1.000000 0.400000 0.000000
1.100000 0.400000 0.000000
1.200000 0.400000 0.000000
1.300000 0.400000 0.000000
1.400000 0.400000 0.000000
1.500000 0.400000 0.000000
1.600000 0.400000 0.000000
1.700000 0.400000 0.000000
1.800000 0.400000 0.000000
1.900000 0.400000 0.000000
2.000000 0.400000 0.000000
2.100000 0.400000 0.000000
2.200000 0.400000 0.000000
2.300000 0.400000 0.000000
2.400000 0.400000 0.000000
2.500000 0.400000 0.000000
2.600000 0.400000 0.000000
2.700000 0.400000 0.000000
2.800000 0.400000 0.000000
2.900000 0.400000 0.000000
3.000000 0.400000 0.000000
3.100000 0.400000 0.000000
3.200000 0.400000 0.000000
3.300000 0.400000 0.000000
3.400000 0.400000 0.000000
3.500000 0.400000 0.000000
3.600000 0.400000 0.000000
3.700000 0.400000 0.000000
3.800000 0.400000 0.000000
3.900000 0.400000 0.000000
4.000000 0.400000 0.000000
0.000000 0.500000 0.000000
0.100000 0.500000 0.000000
0.200000 0.500000 0.000000
0.300000 0.500000 0.000000
0.400000 0.500000 0.000000
0.500000 0.500000 0.000000
0.600000 0.500000 0.000000
0.700000 0.500000 0.000000
0.800000 0.500000 0.000000
0.900000 0.500000 0.000000
1.000000 0.500000 0.000000
1.100000 0.500000 0.000000
1.200000 0.500000 0.000000
1.300000 0.500000 0.000000
1.400000 0.500000 0.000000
1.500000 0.500000 0.000000
1.600000 0.500000 0.000000
1.700000 0.500000 0.000000
1.800000 0.500000 0.000000
1.900000 0.500000 0.000000
2.000000 0.500000 0.000000
2.100000 0.500000 0.000000
2.200000 0.500000 0.000000
2.300000 0.500000 0.000000
2.400000 0.500000 0.000000
2.500000 0.500000 0.000000
2.600000 0.500000 0.000000
2.700000 0.500000 0.000000
2.800000 0.500000 0.000000
2.900000 0.500000 0.000000
3.000000 0.500000 0.000000
3.100000 0.500000 0.000000
3.200000 0.500000 0.000000
3.300000 0.500000 0.000000
3.400000 0.500000 0.000000
3.500000 0.500000 0.000000
3.600000 0.500000 0.000000
3.700000 0.500000 0.000000
3.800000 0.500000 0.000000
3.900000 0.500000 0.000000
4.000000 0.500000 0.000000
0.000000 0.600000 0.000000
0.100000 0.600000 0.000000
0.200000 0.600000 0.000000
0.300000 0.600000 0.000000
0.400000 0.600000 0.000000
0.500000 0.600000 0.000000
0.600000 0.600000 0.000000
0.700000 0.600000 0.000000
0.800000 0.600000 0.000000
0.900000 0.600000 0.000000
1.000000 0.600000 0.000000
1.100000 0.600000 0.000000
1.200000 0.600000 0.000000
1.300000 0.600000 0.000000
1.400000 0.600000 0.000000
1.500000 0.600000 0.000000
1.600000 0.600000 0.000000
1.700000 0.600000 0.000000
1.800000 0.600000 0.000000
1.900000 0.600000 0.000000
2.000000 0.600000 0.000000
2.100000 0.600000 0.000000
2.200000 0.600000 0.000000
2.300000 0.600000 0.000000
2.400000 0.600000 0.000000
2.500000 0.600000 0.000000
2.600000 0.600000 0.000000
2.700000 0.600000 0.000000
2.800000 0.600000 0.000000
2.900000 0.600000 0.000000
3.000000 0.600000 0.000000
3.100000 0.600000 0.000000
3.200000 0.600000 0.000000
3.300000 0.600000 0.000000
3.400000 0.600000 0.000000
3.500000 0.600000 0.000000
3.600000 0.600000 0.000000
3.700000 0.600000 0.000000
3.800000 0.600000 0.000000
3.900000 0.600000 0.000000
4.000000 0.600000 0.000000
0.000000 0.700000 0.000000
0.100000 0.700000 0.000000
0.200000 0.700000 0.000000
0.300000 0.700000 0.000000
0.400000 0.700000 0.000000
0.500000 0.700000 0.000000
0.600000 0.700000 0.000000
0.700000 0.700000 0.000000
0.800000 0.700000 0.000000
0.900000 0.700000 0.000000
1.000000 0.700000 0.000000
1.100000 0.700000 0.000000
1.200000 0.700000 0.000000
1.300000 0.700000 0.000000
1.400000 0.700000 0.000000
1.500000 0.700000 0.000000
1.600000 0.700000 0.000000
1.700000 0.700000 0.000000
1.800000 0.700000 0.000000
1.900000 0.700000 0.000000
2.000000 0.700000 0.000000
2.100000 0.700000 0.000000
2.200000 0.700000 0.000000
2.300000 0.700000 0.000000
2.400000 0.700000 0.000000
2.500000 0.700000 0.000000
2.600000 0.700000 0.000000
2.700000 0.700000 0.000000
2.800000 0.700000 0.000000
2.900000 0.700000 0.000000
3.000000 0.700000 0.000000
3.100000 0.700000 0.000000
3.200000 0.700000 0.000000
3.300000 0.700000 0.000000
3.400000 0.700000 0.000000
3.500000 0.700000 0.000000
3.600000 0.700000 0.000000
3.700000 0.700000 0.000000
3.800000 0.700000 0.000000
3.900000 0.700000 0.000000
4.000000 0.700000 0.000000
0.000000 0.800000 0.000000
0.100000 0.800000 0.000000
0.200000 0.800000 0.000000
0.300000 0.800000 0.000000
0.400000 0.800000 0.000000
0.500000 0.800000 0.000000
0.600000 0.800000 0.000000
0.700000 0.800000 0.000000
0.800000 0.800000 0.000000
0.900000 0.800000 0.000000
1.000000 0.800000 0.000000
1.100000 0.800000 0.000000
1.200000 0.800000 0.000000
1.300000 0.800000 0.000000
1.400000 0.800000 0.000000
1.500000 0.800000 0.000000
1.600000 0.800000 0.000000
1.700000 0.800000 0.000000
1.800000 0.800000 0.000000
1.900000 0.800000 0.000000
2.000000 0.800000 0.000000
2.100000 0.800000 0.000000
2.200000 0.800000 0.000000
2.300000 0.800000 0.000000
2.400000 0.800000 0.000000
2.500000 0.800000 0.000000
2.600000 0.800000 0.000000
2.700000 0.800000 0.000000
2.800000 0.800000 0.000000
2.900000 0.800000 0.000000
3.000000 0.800000 0.000000
3.100000 0.800000 0.000000
3.200000 0.800000 0.000000
3.300000 0.800000 0.000000
3.400000 0.800000 0.000000
3.500000 0.800000 0.000000
3.600000 0.800000 0.000000
[...]
CELL_DATA 16000
SCALARS pressure float 1
LOOKUP_TABLE default
26.4866
26.3039
25.9659
25.515
24.9844
24.3985
23.7743
23.1237
22.455
21.7735
21.0828
20.3848
19.6805
18.9703
18.2544
17.533
16.8071
16.0776
15.3461
14.6141
13.8831
13.1542
12.4281
11.7052
10.9854
10.2685
9.55421
8.84195
8.13133
7.42198
6.71358
6.00585
5.29861
4.59171
3.88502
3.17849
2.47205
1.76568
1.05936
0.353084
26.5451
26.3352
25.9826
25.5238
24.989
24.4007
23.7753
23.124
22.4549
21.7733
21.0826
20.3846
19.6805
18.9703
18.2545
17.5332
16.8072
16.0777
15.3461
14.614
13.8829
13.154
12.4279
11.705
10.9853
10.2685
9.55418
8.84194
8.13135
7.422
6.7136
6.00588
5.29864
4.59173
3.88504
3.1785
2.47206
1.76569
1.05936
0.353078
26.6652
26.4158
26.0363
25.5595
25.0126
24.4164
23.7856
23.1309
22.4595
21.7765
21.0851
20.3869
19.6827
18.9727
18.2567
17.5351
16.8087
16.0785
15.3462
14.6135
13.8819
13.1527
12.4265
11.7036
10.9841
10.2674
9.55334
8.8413
8.13087
7.42166
6.71336
6.00572
5.29853
4.59166
3.885
3.17848
2.47205
1.76568
1.05935
0.353065
26.8211
26.5272
26.1145
25.6136
25.0498
24.4418
23.8029
23.1426
22.4676
21.7824
21.0898
20.3912
19.6871
18.9771
18.261
17.5388
16.8114
16.08
15.3463
14.6124
13.8799
13.1501
12.4237
11.701
10.9817
10.2655
9.55175
8.84007
8.12995
7.421
6.71289
6.00539
5.29831
4.59152
3.88491
3.17843
2.47202
1.76566
1.05933
0.353053
26.9906
26.6533
26.2056
25.6784
25.0953
24.4733
23.8246
23.1576
22.4781
21.7902
21.0963
20.3973
19.6933
18.9834
18.267
17.544
16.8151
16.0819
15.3463
14.6107
13.8769
13.1464
12.4198
11.6972
10.9784
10.2627
9.54952
8.83835
8.12866
7.42006
6.71223
6.00494
5.29801
4.59132
3.88478
3.17835
2.47197
1.76563
1.05931
0.353045
27.156
26.7797
26.2991
25.7461
25.1435
24.5073
23.8483
23.1742
22.4899
21.7991
21.1038
20.4045
19.7007
18.9911
18.2743
17.5502
16.8195
16.084
15.346
14.6082
13.873
13.1416
12.4149
11.6926
10.9743
10.2593
9.54684
8.83629
8.12713
7.41895
6.71145
6.0044
5.29764
4.59108
3.88463
3.17825
2.47191
1.76559
1.0593
0.35304
27.3033
26.8947
26.3857
25.8096
25.1893
24.5399
23.8714
23.1904
22.5016
21.8081
21.1115
20.4121
19.7086
18.9992
18.2821
17.5568
16.824
16.0859
15.3453
14.6053
13.8684
13.1363
12.4095
11.6876
10.97
10.2557
9.54401
8.83414
8.12554
7.4178
6.71064
6.00384
5.29727
4.59083
3.88447
3.17815
2.47185
1.76556
1.05928
0.353038
27.4222
26.9889
26.4575
25.8629
25.2282
24.5678
23.8912
23.2045
22.5119
21.8162
21.1186
20.4191
19.7161
19.0069
18.2894
17.5627
16.828
16.0874
15.3443
14.6022
13.8639
13.1312
12.4043
11.6829
10.9659
10.2524
9.54142
8.83217
8.12409
7.41676
6.7099
6.00333
5.29693
4.59061
3.88433
3.17806
2.4718
1.76553
1.05927
0.353038
27.5055
27.0555
26.5087
25.9013
25.2563
24.5882
23.9058
23.215
22.5198
21.8224
21.1242
20.4248
19.7221
19.013
18.295
17.5673
16.8309
16.0884
15.3433
14.5995
13.8602
13.127
12.4002
11.6792
10.9628
10.2499
9.53944
8.83068
8.12299
7.41597
6.70936
6.00296
5.29668
4.59044
3.88422
3.178
2.47176
1.76551
1.05926
0.353039
27.5484
27.09
26.5354
25.9214
25.2712
24.599
23.9137
23.2208
22.5241
21.826
21.1275
20.4281
19.7255
19.0165
18.2983
17.5699
16.8326
16.089
15.3428
14.5981
13.8582
13.1248
12.3981
11.6772
10.9611
10.2485
9.5384
8.82989
8.12242
7.41557
6.70907
6.00276
5.29655
4.59036
3.88417
3.17796
2.47174
1.7655
1.05926
0.353039
27.5486
27.0903
26.5357
25.9217
25.2715
24.5993
23.914
23.2212
22.5245
21.8264
21.1279
20.4285
19.726
19.017
18.2987
17.5703
16.833
16.0893
15.3431
14.5983
13.8584
13.125
12.3982
11.6774
10.9612
10.2486
9.53847
8.82995
8.12246
7.4156
6.70909
6.00278
5.29656
4.59037
3.88417
3.17797
2.47174
1.7655
1.05926
0.353039
27.5062
27.0562
26.5094
25.902
25.2571
24.589
23.9067
23.2161
22.5209
21.8237
21.1255
20.4261
19.7234
19.0143
18.2963
17.5685
16.832
16.0894
15.3442
14.6003
13.8609
13.1276
12.4007
11.6796
10.9631
10.2501
9.53965
8.83084
8.12311
7.41607
6.70943
6.00301
5.29671
4.59047
3.88424
3.17801
2.47176
1.76551
1.05926
0.353038
27.4233
26.9901
26.4586
25.8641
25.2295
24.5692
23.8927
23.2062
22.5138
21.8181
21.1207
20.4213
19.7183
19.0091
18.2914
17.5647
16.8298
16.0891
15.3458
14.6034
13.865
13.1321
12.4051
11.6835
10.9664
10.2528
9.54175
8.83243
8.12429
7.41691
6.71002
6.00342
5.29699
4.59065
3.88435
3.17808
2.47181
1.76553
1.05927
0.353036
27.3048
26.8962
26.3872
25.8112
25.191
24.5417
23.8733
23.1925
22.504
21.8107
21.1142
20.4149
19.7115
19.0021
18.2849
17.5593
16.8264
16.0881
15.3472
14.607
13.8699
13.1375
12.4105
11.6884
10.9707
10.2563
9.54445
8.83448
8.1258
7.418
6.71079
6.00395
5.29734
4.59088
3.8845
3.17817
2.47186
1.76556
1.05928
0.353036
27.1578
26.7815
26.301
25.7479
25.1455
24.5094
23.8507
23.1767
22.4927
21.8021
21.107
20.4078
19.7041
18.9944
18.2776
17.5533
16.8224
16.0866
15.3483
14.6103
13.8747
13.1431
12.4161
11.6936
10.9751
10.26
9.54736
8.8367
8.12745
7.41919
6.71162
6.00452
5.29773
4.59113
3.88466
3.17827
2.47192
1.76559
1.05929
0.353037
26.9927
26.6553
26.2076
25.6805
25.0975
24.4757
23.8272
23.1604
22.4812
21.7936
21.0998
20.401
19.697
18.9871
18.2707
17.5475
16.8183
16.0848
15.3489
14.6129
13.8788
13.148
12.4212
11.6984
10.9793
10.2634
9.5501
8.8388
8.12901
7.42032
6.71242
6.00507
5.2981
4.59138
3.88482
3.17836
2.47197
1.76562
1.05931
0.353041
26.8233
26.5293
26.1166
25.6158
25.0522
24.4443
23.8056
23.1455
22.4708
21.7859
21.0935
20.3951
19.691
18.9811
18.2648
17.5425
16.8148
16.0831
15.3491
14.6148
13.882
13.1519
12.4252
11.7022
10.9827
10.2663
9.55237
8.84055
8.13032
7.42127
6.71309
6.00553
5.29841
4.59158
3.88494
3.17844
2.47202
1.76565
1.05932
0.353048
26.6674
26.418
26.0386
25.5618
25.015
24.4189
23.7883
23.1338
22.4627
21.78
21.0888
20.3908
19.6867
18.9767
18.2606
17.5389
16.8122
16.0817
15.349
14.616
13.884
13.1545
12.428
11.7049
10.9851
10.2682
9.55397
8.84178
8.13123
7.42193
6.71356
6.00585
5.29862
4.59171
3.88503
3.17849
2.47205
1.76567
1.05934
0.353059
26.5474
26.3374
25.9848
25.5261
24.9913
24.4032
23.778
23.127
22.4581
21.7768
21.0862
20.3885
19.6844
18.9743
18.2584
17.5369
16.8107
16.0808
15.3489
14.6165
13.8851
13.1558
12.4294
11.7063
10.9863
10.2693
9.5548
8.84242
8.1317
7.42227
6.71379
6.006
5.29872
4.59177
3.88506
3.17851
2.47206
1.76567
1.05934
0.35307
26.4888
26.3061
25.9681
25.5172
24.9867
24.4009
23.7769
23.1266
22.4581
21.7768
21.0863
20.3885
19.6844
18.9742
18.2582
17.5367
16.8105
16.0807
15.3489
14.6166
13.8852
13.1559
12.4295
11.7064
10.9864
10.2693
9.5548
8.8424
8.13167
7.42223
6.71375
6.00597
5.29869
4.59175
3.88504
3.17849
2.47204
1.76566
1.05934
0.353075
26.5451
26.3352
25.9826
25.5238
24.989
24.4007
23.7753
23.124
22.4549
21.7733
21.0826
20.3846
19.6805
18.9703
18.2545
17.5332
16.8072
16.0777
15.3461
14.614
13.8829
13.154
12.4279
11.705
10.9853
10.2685
9.55418
8.84194
8.13135
7.42201
6.7136
6.00588
5.29864
4.59173
3.88504
3.1785
2.47206
1.76569
1.05936
0.353078
26.5959
26.3461
25.9766
25.5121
24.9766
24.3897
23.7661
23.1166
22.4491
21.7686
21.0787
20.3813
19.6775
18.9677
18.2521
17.5312
16.8057
16.0767
15.3457
14.6142
13.8836
13.1549
12.429
11.7062
10.9865
10.2696
9.55511
8.84273
8.13199
7.42251
6.714
6.00618
5.29886
4.59189
3.88516
3.17859
2.47212
1.76573
1.05939
0.353087
26.716
26.4172
26.0178
25.5356
24.9897
24.3967
23.7696
23.1182
22.4495
21.7685
21.0784
20.3811
19.6774
18.9678
18.2524
17.5315
16.8059
16.0768
15.3456
14.6139
13.8832
13.1545
12.4286
11.7059
10.9862
10.2694
9.55503
8.8427
8.132
7.42255
6.71405
6.00623
5.29891
4.59194
3.8852
3.17862
2.47215
1.76575
1.0594
0.353084
26.8777
26.5251
26.0895
25.5828
25.0206
24.4167
23.7825
23.1264
22.4548
21.7721
21.0812
20.3836
19.68
18.9704
18.2549
17.5337
16.8075
16.0776
15.3456
14.6131
13.8818
13.1528
12.4269
11.7042
10.9848
10.2682
9.55408
8.84199
8.13149
7.4222
6.71381
6.00608
5.29882
4.59188
3.88517
3.17861
2.47215
1.76575
1.0594
0.353081
27.0556
26.6506
26.1772
25.6436
25.0622
24.445
23.8015
23.1392
22.4635
21.7783
21.0861
20.3881
19.6845
18.975
18.2593
17.5375
16.8102
16.079
15.3455
14.6117
13.8795
13.15
12.4239
11.7014
10.9823
10.2661
9.55245
8.84074
8.13056
7.42153
6.71335
6.00577
5.29861
4.59176
3.8851
3.17857
2.47212
1.76574
1.05939
0.35308
27.2294
26.7777
26.269
25.709
25.1082
24.4769
23.8235
23.1543
22.4741
21.7861
21.0924
20.3939
19.6904
18.981
18.265
17.5422
16.8135
16.0805
15.3452
14.6098
13.8765
13.1463
12.4201
11.6978
10.9791
10.2635
9.55036
8.83914
8.12937
7.42067
6.71274
6.00535
5.29834
4.59158
3.88498
3.1785
2.47209
1.76572
1.05939
0.353081
27.3842
26.8937
26.3547
25.7711
25.1526
24.5082
23.8454
23.1696
22.485
21.7942
21.0992
20.4003
19.6969
18.9876
18.2712
17.5474
16.8171
16.082
15.3446
14.6075
13.8729
13.1422
12.4159
11.6939
10.9757
10.2607
9.5481
8.83741
8.12808
7.41974
6.71209
6.0049
5.29804
4.59138
3.88486
3.17842
2.47204
1.7657
1.05938
0.353086
27.509
26.9889
26.426
25.8235
25.1905
24.5353
23.8646
23.1832
22.4947
21.8017
21.1055
20.4064
19.7032
18.9939
18.277
17.5521
16.8202
16.0832
15.3438
14.6051
13.8694
13.1381
12.4118
11.6901
10.9725
10.258
9.54601
8.83581
8.1269
7.41889
6.71149
6.00449
5.29776
4.5912
3.88474
3.17835
2.472
1.76568
1.05937
0.35309
27.5962
27.0562
26.4769
25.8614
25.2181
24.5552
23.8787
23.1933
22.5022
21.8075
21.1106
20.4112
19.7081
18.9989
18.2816
17.5558
16.8226
16.084
15.3431
14.603
13.8665
13.1349
12.4086
11.6872
10.97
10.256
9.54441
8.83459
8.126
7.41824
6.71103
6.00418
5.29755
4.59106
3.88466
3.1783
2.47197
1.76566
1.05937
0.353094
27.6411
27.091
26.5035
25.8812
25.2327
24.5658
23.8864
23.1989
22.5063
21.8109
21.1135
20.4141
19.7111
19.0018
18.2843
17.5579
16.8239
16.0845
15.3427
14.6019
13.8649
13.1331
12.4069
11.6857
10.9687
10.2549
9.54357
8.83396
8.12553
7.41791
6.7108
6.00402
5.29744
4.59099
3.88461
3.17827
2.47195
1.76565
1.05936
0.353096
27.6413
27.0913
26.5037
25.8815
25.233
24.5661
23.8867
23.1992
22.5067
21.8113
21.1139
20.4145
19.7115
19.0022
18.2847
17.5583
16.8243
16.0848
15.3429
14.6021
13.8651
13.1333
12.407
11.6858
10.9688
10.255
9.54363
8.83401
8.12558
7.41794
6.71082
6.00403
5.29745
4.591
3.88462
3.17828
2.47196
1.76565
1.05936
0.353096
27.5969
27.0569
26.4776
25.8621
25.2189
24.556
23.8796
23.1943
22.5032
21.8087
21.1118
20.4125
19.7094
19.0001
18.2828
17.5569
16.8236
16.085
15.3439
14.6037
13.8671
13.1354
12.4091
11.6876
10.9703
10.2562
9.54461
8.83475
8.12612
7.41834
6.7111
6.00423
5.29759
4.59109
3.88467
3.17831
2.47198
1.76566
1.05936
0.353092
27.5101
26.99
26.4271
25.8247
25.1917
24.5366
23.866
23.1847
22.4964
21.8035
21.1074
20.4083
19.7051
18.9958
18.2789
17.5539
16.8219
16.0847
15.3452
14.6063
13.8704
13.139
12.4125
11.6908
10.973
10.2584
9.54633
8.83606
8.1271
7.41904
6.7116
6.00457
5.29782
4.59124
3.88477
3.17837
2.47201
1.76568
1.05937
0.353087
27.3857
26.8952
26.3562
25.7726
25.1542
24.51
23.8473
23.1716
22.4872
21.7966
21.1017
20.4029
19.6996
18.9902
18.2737
17.5497
16.8193
16.084
15.3464
14.6091
13.8743
13.1433
12.4169
11.6947
10.9764
10.2612
9.54853
8.83774
8.12835
7.41994
6.71224
6.00501
5.29811
4.59143
3.88489
3.17844
2.47205
1.7657
1.05937
0.353081
27.2312
26.7795
26.2708
25.7108
25.1101
24.479
23.8257
23.1567
22.4767
21.7889
21.0954
20.397
19.6935
18.9841
18.268
17.5451
16.8162
16.0829
15.3474
14.6118
13.8781
13.1477
12.4213
11.6988
10.9799
10.2642
9.55087
8.83954
8.12968
7.42091
6.71292
6.00548
5.29843
4.59164
3.88502
3.17852
2.47209
1.76572
1.05938
0.353075
27.0577
26.6526
26.1793
25.6456
25.0644
24.4473
23.804
23.1419
22.4664
21.7814
21.0894
20.3915
19.688
18.9785
18.2627
17.5407
16.8132
16.0817
15.3479
14.6139
13.8814
13.1516
12.4253
11.7025
10.9832
10.2669
9.55303
8.84119
8.13091
7.42179
6.71354
6.00591
5.29871
4.59182
3.88513
3.17859
2.47213
1.76574
1.05939
0.353073
26.8799
26.5272
26.0916
25.585
25.0229
24.4191
23.7851
23.1292
22.4579
21.7754
21.0846
20.3872
19.6837
18.9741
18.2586
17.5372
16.8108
16.0806
15.3482
14.6154
13.8838
13.1545
12.4283
11.7054
10.9857
10.269
9.55469
8.84247
8.13185
7.42247
6.71401
6.00622
5.29891
4.59195
3.88521
3.17863
2.47215
1.76575
1.05939
0.353073
26.7182
26.4194
26.02
25.5379
24.9921
24.3992
23.7722
23.121
22.4526
21.7719
21.082
20.3848
19.6813
18.9716
18.2561
17.5351
16.8093
16.0799
15.3483
14.6163
13.8852
13.1563
12.4301
11.7071
10.9872
10.2702
9.55565
8.84318
8.13237
7.42282
6.71424
6.00637
5.299
4.59199
3.88523
3.17863
2.47215
1.76574
1.05939
0.353076
26.5981
26.3483
25.9788
25.5144
24.9789
24.3921
23.7687
23.1195
22.4521
21.7719
21.0822
20.385
19.6813
18.9715
18.2559
17.5348
16.8091
16.0798
15.3485
14.6166
13.8856
13.1567
12.4305
11.7074
10.9874
10.2703
9.55572
8.8432
8.13234
7.42277
6.71418
6.0063
5.29894
4.59194
3.88518
3.17859
2.47212
1.76572
1.05937
0.353078
26.5473
26.3373
25.9847
25.5259
24.9912
24.4031
23.7778
23.1268
22.4579
21.7766
21.086
20.3883
19.6842
18.9741
18.2582
17.5367
16.8105
16.0807
15.3488
14.6164
13.885
13.1557
12.4294
11.7062
10.9862
10.2692
9.55476
8.84238
8.13167
7.42224
6.71377
6.00599
5.2987
4.59176
3.88505
3.1785
2.47205
1.76567
1.05934
0.353066
26.6652
26.4158
26.0363
25.5595
25.0126
24.4164
23.7856
23.1309
22.4595
21.7765
21.0851
20.3869
19.6827
18.9727
18.2567
17.5351
16.8087
16.0785
15.3462
14.6135
13.8819
13.1527
12.4265
11.7036
10.9841
10.2674
9.55334
8.8413
8.13087
7.42166
6.71336
6.00572
5.29853
4.59166
3.885
3.17848
2.47205
1.76568
1.05935
0.353065
26.716
26.4172
26.0178
25.5356
24.9897
24.3967
23.7696
23.1182
22.4495
21.7685
21.0784
20.3811
19.6774
18.9678
18.2524
17.5315
16.8059
16.0768
15.3456
14.6139
13.8832
13.1545
12.4286
11.7059
10.9862
10.2694
9.55503
8.8427
8.132
7.42255
6.71405
6.00623
5.29891
4.59194
3.8852
3.17862
2.47215
1.76575
1.0594
0.353084
26.8366
26.4833
26.0513
25.5508
24.9952
24.3972
23.7678
23.1155
22.4466
21.7657
21.0759
20.3789
19.6756
18.9663
18.2512
17.5306
16.8052
16.0763
15.3453
14.6138
13.8832
13.1547
12.429
11.7064
10.9868
10.27
9.55557
8.84319
8.13243
7.42292
6.71435
6.00647
5.2991
4.59208
3.88531
3.17871
2.47222
1.7658
1.05943
0.353088
27.002
26.5898
26.1188
25.5929
25.021
24.4128
23.7769
23.1206
22.4493
21.7671
21.0767
20.3797
19.6767
18.9677
18.2527
17.5319
16.8061
16.0767
15.3451
14.613
13.8821
13.1535
12.4278
11.7053
10.9859
10.2693
9.55513
8.84291
8.13227
7.42284
6.71432
6.00648
5.29913
4.59212
3.88535
3.17874
2.47225
1.76582
1.05944
0.35309
27.1858
26.7163
26.2048
25.6508
25.0595
24.438
23.7933
23.1311
22.456
21.7716
21.0802
20.3829
19.6802
18.9715
18.2564
17.5351
16.8084
16.0777
15.3448
14.6117
13.88
13.151
12.4253
11.7031
10.984
10.2678
9.55393
8.84203
8.13164
7.42241
6.71404
6.0063
5.29902
4.59206
3.88532
3.17874
2.47225
1.76583
1.05945
0.353096
27.3665
26.8455
26.2962
25.7146
25.1035
24.468
23.8135
23.1446
22.4651
21.778
21.0853
20.3878
19.6854
18.977
18.2617
17.5395
16.8114
16.079
15.3443
14.6096
13.877
13.1475
12.4218
11.6999
10.9813
10.2655
9.5522
8.84073
8.1307
7.42175
6.71359
6.00601
5.29883
4.59195
3.88526
3.1787
2.47223
1.76583
1.05946
0.353106
27.5277
26.9639
26.382
25.7759
25.1467
24.4981
23.8341
23.1587
22.4749
21.7851
21.091
20.3934
19.6916
18.9835
18.2678
17.5445
16.8147
16.0803
15.3434
14.607
13.8733
13.1434
12.4178
11.6962
10.9782
10.263
9.55026
8.83927
8.12963
7.42099
6.71306
6.00566
5.2986
4.5918
3.88517
3.17865
2.47221
1.76582
1.05946
0.353117
27.6579
27.0613
26.4538
25.8281
25.184
24.5243
23.8524
23.1714
22.4838
21.7918
21.0967
20.399
19.6977
18.9899
18.2738
17.5493
16.8177
16.0812
15.3422
14.6041
13.8694
13.1393
12.4138
11.6927
10.9752
10.2607
9.54842
8.83789
8.12862
7.42027
6.71257
6.00532
5.29838
4.59166
3.88508
3.1786
2.47219
1.76581
1.05946
0.353128
27.7489
27.1302
26.5052
25.8658
25.2112
24.5437
23.8661
23.1811
22.4908
21.7971
21.1013
20.4037
19.7027
18.995
18.2784
17.5529
16.8199
16.0816
15.3409
14.6016
13.8662
13.1359
12.4106
11.6899
10.9729
10.2588
9.547
8.83682
8.12785
7.41972
6.71219
6.00506
5.29821
4.59155
3.88502
3.17856
2.47216
1.7658
1.05946
0.353137
27.7957
27.1659
26.5321
25.8856
25.2257
24.5541
23.8736
23.1864
22.4948
21.8003
21.1042
20.4065
19.7057
18.998
18.2811
17.5549
16.8211
16.0819
15.3402
14.6001
13.8644
13.134
12.4089
11.6884
10.9716
10.2578
9.54625
8.83627
8.12744
7.41944
6.71199
6.00493
5.29813
4.5915
3.88498
3.17854
2.47215
1.7658
1.05946
0.353141
27.7959
27.1662
26.5323
25.8858
25.2259
24.5544
23.8739
23.1867
22.4951
21.8007
21.1046
20.4069
19.7061
18.9984
18.2815
17.5553
16.8214
16.0822
15.3404
14.6003
13.8646
13.1342
12.409
11.6885
10.9718
10.2579
9.54631
8.83632
8.12749
7.41947
6.71201
6.00495
5.29814
4.59151
3.88499
3.17855
2.47216
1.7658
1.05946
0.35314
27.7496
27.1309
26.5059
25.8665
25.212
24.5445
23.867
23.182
22.4918
21.7982
21.1025
20.4049
19.7039
18.9962
18.2796
17.5539
16.8209
16.0825
15.3417
14.6023
13.8668
13.1364
12.4111
11.6903
10.9732
10.2591
9.54719
8.83698
8.12797
7.41981
6.71226
6.00511
5.29825
4.59158
3.88503
3.17857
2.47217
1.7658
1.05946
0.353133
27.6591
27.0624
26.4549
25.8292
25.1852
24.5256
23.8538
23.1729
22.4855
21.7935
21.0985
20.4009
19.6996
18.9918
18.2756
17.551
16.8193
16.0827
15.3436
14.6053
13.8704
13.1401
12.4145
11.6933
10.9757
10.2611
9.54873
8.83814
8.12882
7.42042
6.71268
6.0054
5.29844
4.5917
3.88511
3.17862
2.47219
1.76581
1.05946
0.353123
27.5293
26.9654
26.3835
25.7775
25.1483
24.4997
23.8359
23.1606
22.477
21.7874
21.0935
20.396
19.6941
18.986
18.2703
17.5469
16.8169
16.0823
15.3452
14.6086
13.8746
13.1445
12.4187
11.697
10.9788
10.2636
9.55068
8.8396
8.12989
7.42118
6.71321
6.00576
5.29868
4.59185
3.8852
3.17867
2.47222
1.76582
1.05945
0.35311
27.3684
26.8473
26.298
25.7164
25.1054
24.47
23.8156
23.1469
22.4677
21.7808
21.0882
20.3908
19.6885
18.9801
18.2647
17.5423
16.814
16.0814
15.3464
14.6115
13.8786
13.1489
12.423
11.7008
10.982
10.2662
9.55271
8.84113
8.13101
7.42198
6.71376
6.00613
5.29892
4.59201
3.88529
3.17872
2.47224
1.76583
1.05945
0.353097
27.188
26.7183
26.2068
25.6528
25.0616
24.4403
23.7957
23.1337
22.4589
21.7747
21.0834
20.3863
19.6836
18.9749
18.2597
17.5382
16.8113
16.0804
15.3472
14.6138
13.8818
13.1526
12.4266
11.7041
10.9849
10.2685
9.5545
8.84247
8.13198
7.42267
6.71423
6.00644
5.29912
4.59213
3.88536
3.17876
2.47226
1.76583
1.05944
0.353086
27.0042
26.592
26.1209
25.5951
25.0233
24.4152
23.7795
23.1233
22.4523
21.7703
21.0801
20.3833
19.6804
18.9714
18.2563
17.5353
16.8093
16.0796
15.3477
14.6153
13.8841
13.1552
12.4292
11.7065
10.9869
10.2701
9.55574
8.84338
8.13263
7.42311
6.71452
6.00662
5.29922
4.59218
3.88538
3.17876
2.47225
1.76582
1.05943
0.35308
26.8388
26.4855
26.0535
25.5531
24.9975
24.3997
23.7704
23.1183
22.4496
21.769
21.0794
20.3826
19.6794
18.9701
18.2549
17.5341
16.8085
16.0793
15.348
14.6161
13.8853
13.1565
12.4305
11.7076
10.9877
10.2707
9.55618
8.84367
8.13279
7.42318
6.71454
6.00661
5.29919
4.59214
3.88534
3.17872
2.47221
1.76579
1.05941
0.353076
26.7182
26.4194
26.02
25.5378
24.992
24.3991
23.7721
23.121
22.4525
21.7718
21.082
20.3848
19.6813
18.9717
18.2562
17.5351
16.8093
16.0799
15.3484
14.6163
13.8852
13.1562
12.4301
11.7071
10.9872
10.2702
9.55562
8.84315
8.13234
7.4228
6.71422
6.00635
5.29898
4.59198
3.88522
3.17862
2.47214
1.76574
1.05938
0.353072
26.6674
26.4179
26.0384
25.5616
25.0148
24.4186
23.788
23.1335
22.4624
21.7797
21.0885
20.3906
19.6865
18.9765
18.2605
17.5387
16.812
16.0815
15.3489
14.6158
13.8839
13.1543
12.4279
11.7048
10.985
10.2681
9.55389
8.84171
8.13117
7.42188
6.71351
6.00581
5.29858
4.59168
3.885
3.17847
2.47203
1.76565
1.05932
0.353048
26.8211
26.5272
26.1145
25.6136
25.0498
24.4418
23.8029
23.1426
22.4676
21.7824
21.0898
20.3912
19.6871
18.9771
18.261
17.5388
16.8114
16.08
15.3463
14.6124
13.8799
13.1501
12.4237
11.701
10.9817
10.2655
9.55175
8.84007
8.12995
7.421
6.71289
6.00539
5.29831
4.59152
3.88491
3.17843
2.47202
1.76566
1.05933
0.353053
26.8777
26.5251
26.0895
25.5828
25.0206
24.4167
23.7825
23.1264
22.4548
21.7721
21.0812
20.3836
19.68
18.9704
18.2549
17.5337
16.8075
16.0776
15.3456
14.6131
13.8818
13.1528
12.4269
11.7042
10.9848
10.2682
9.55408
8.84199
8.13149
7.4222
6.71381
6.00608
5.29882
4.59188
3.88517
3.17861
2.47215
1.76575
1.0594
0.353081
27.002
26.5898
26.1188
25.5929
25.021
24.4128
23.7769
23.1206
22.4493
21.7671
21.0767
20.3797
19.6767
18.9677
18.2527
17.5319
16.8061
16.0767
15.3451
14.613
13.8821
13.1535
12.4278
11.7053
10.9859
10.2693
9.55513
8.84291
8.13227
7.42284
6.71432
6.00648
5.29913
4.59212
3.88535
3.17874
2.47225
1.76582
1.05944
0.35309
27.1713