# vtk DataFile Version 2.0
I need something to put here
ASCII

DATASET STRUCTURED_GRID
DIMENSIONS 41 21 21
POINTS 18081 float
0.000000 0.000000 0.000000
0.100000 0.000000 0.000000
0.200000 0.000000 0.000000
0.300000 0.000000 0.000000
0.400000 0.000000 0.000000
0.500000 0.000000 0.000000
0.600000 0.000000 0.000000
0.700000 0.000000 0.000000
0.800000 0.000000 0.000000
0.900000 0.000000 0.000000
1.000000 0.000000 0.000000
1.100000 0.000000 0.000000
1.200000 0.000000 0.000000
1.300000 0.000000 0.000000
1.400000 0.000000 0.000000
1.500000 0.000000 0.000000
1.600000 0.000000 0.000000
1.700000 0.000000 0.000000
1.800000 0.000000 0.000000
1.900000 0.000000 0.000000
2.000000 0.000000 0.000000
2.100000 0.000000 0.000000
2.200000 0.000000 0.000000
2.300000 0.000000 0.000000
2.400000 0.000000 0.000000
2.500000 0.000000 0.000000
2.600000 0.000000 0.000000
2.700000 0.000000 0.000000
2.800000 0.000000 0.000000
2.900000 0.000000 0.000000
3.000000 0.000000 0.000000
3.100000 0.000000 0.000000
3.200000 0.000000 0.000000
3.300000 0.000000 0.000000
3.400000 0.000000 0.000000
3.500000 0.000000 0.000000
3.600000 0.000000 0.000000
3.700000 0.000000 0.000000
3.800000 0.000000 0.000000
3.900000 0.000000 0.000000
4.000000 0.000000 0.000000
0.000000 0.100000 0.000000
0.100000 0.100000 0.000000
0.200000 0.100000 0.000000
0.300000 0.100000 0.000000
0.400000 0.100000 0.000000
0.500000 0.100000 0.000000
0.600000 0.100000 0.000000
0.700000 0.100000 0.000000
0.800000 0.100000 0.000000
0.900000 0.100000 0.000000
1.000000 0.100000 0.000000
1.100000 0.100000 0.000000
1.200000 0.100000 0.000000
1.300000 0.100000 0.000000
1.400000 0.100000 0.000000
1.500000 0.100000 0.000000
1.600000 0.100000 0.000000
1.700000 0.100000 0.000000
1.800000 0.100000 0.000000
1.900000 0.100000 0.000000
2.000000 0.100000 0.000000
2.100000 0.100000 0.000000
2.200000 0.100000 0.000000
2.300000 0.100000 0.000000
2.400000 0.100000 0.000000
2.500000 0.100000 0.000000
2.600000 0.100000 0.000000
2.700000 0.100000 0.000000
2.800000 0.100000 0.000000
2.900000 0.100000 0.000000
3.000000 0.100000 0.000000
3.100000 0.100000 0.000000
3.200000 0.100000 0.000000
3.300000 0.100000 0.000000
3.400000 0.100000 0.000000
3.500000 0.100000 0.000000
3.600000 0.100000 0.000000
3.700000 0.100000 0.000000
3.800000 0.100000 0.000000
3.900000 0.100000 0.000000
4.000000 0.100000 0.000000
0.000000 0.200000 0.000000
0.100000 0.200000 0.000000
0.200000 0.200000 0.000000
0.300000 0.200000 0.000000
0.400000 0.200000 0.000000
0.500000 0.200000 0.000000
0.600000 0.200000 0.000000
0.700000 0.200000 0.000000
0.800000 0.200000 0.000000
0.900000 0.200000 0.000000
1.000000 0.200000 0.000000
1.100000 0.200000 0.000000
1.200000 0.200000 0.000000
1.300000 0.200000 0.000000
1.400000 0.200000 0.000000
1.500000 0.200000 0.000000
1.600000 0.200000 0.000000
1.700000 0.200000 0.000000
1.800000 0.200000 0.000000
1.900000 0.200000 0.000000
2.000000 0.200000 0.000000
2.100000 0.200000 0.000000
2.200000 0.200000 0.000000
2.300000 0.200000 0.000000
2.400000 0.200000 0.000000
2.500000 0.200000 0.000000
2.600000 0.200000 0.000000
2.700000 0.200000 0.000000
2.800000 0.200000 0.000000
2.900000 0.200000 0.000000
3.000000 0.200000 0.000000
3.100000 0.200000 0.000000
3.200000 0.200000 0.000000
3.300000 0.200000 0.000000
3.400000 0.200000 0.000000
3.500000 0.200000 0.000000
3.600000 0.200000 0.000000
3.700000 0.200000 0.000000
3.800000 0.200000 0.000000
3.900000 0.200000 0.000000
4.000000 0.200000 0.000000
0.000000 0.300000 0.000000
0.100000 0.300000 0.000000
0.200000 0.300000 0.000000
0.300000 0.300000 0.000000
0.400000 0.300000 0.000000
0.500000 0.300000 0.000000
0.600000 0.300000 0.000000
0.700000 0.300000 0.000000
0.800000 0.300000 0.000000
0.900000 0.300000 0.000000
1.000000 0.300000 0.000000
1.100000 0.300000 0.000000
1.200000 0.300000 0.000000
1.300000 0.300000 0.000000
1.400000 0.300000 0.000000
1.500000 0.300000 0.000000
1.600000 0.300000 0.000000
1.700000 0.300000 0.000000
1.800000 0.300000 0.000000
1.900000 0.300000 0.000000
2.000000 0.300000 0.000000
2.100000 0.300000 0.000000
2.200000 0.300000 0.000000
2.300000 0.300000 0.000000
2.400000 0.300000 0.000000
2.500000 0.300000 0.000000
2.600000 0.300000 0.000000
2.700000 0.300000 0.000000
2.800000 0.300000 0.000000
2.900000 0.300000 0.000000
3.000000 0.300000 0.000000
3.100000 0.300000 0.000000
3.200000 0.300000 0.000000
3.300000 0.300000 0.000000
3.400000 0.300000 0.000000
3.500000 0.300000 0.000000
3.600000 0.300000 0.000000
3.700000 0.300000 0.000000
3.800000 0.300000 0.000000
3.900000 0.300000 0.000000
4.000000 0.300000 0.000000
0.000000 0.400000 0.000000
0.100000 0.400000 0.000000
0.200000 0.400000 0.000000
0.300000 0.400000 0.000000
0.400000 0.400000 0.000000
0.500000 0.400000 0.000000
0.600000 0.400000 0.000000
0.700000 0.400000 0.000000
0.800000 0.400000 0.000000
0.900000 0.400000 0.000000
1.000000 0.400000 0.000000
1.100000 0.400000 0.000000
1.200000 0.400000 0.000000
1.300000 0.400000 0.000000
1.400000 0.400000 0.000000
1.500000 0.400000 0.000000
1.600000 0.400000 0.000000
1.700000 0.400000 0.000000
1.800000 0.400000 0.000000
1.900000 0.400000 0.000000
2.000000 0.400000 0.000000
2.100000 0.400000 0.000000
2.200000 0.400000 0.000000
2.300000 0.400000 0.000000
2.400000 0.400000 0.000000
2.500000 0.400000 0.000000
2.600000 0.400000 0.000000
2.700000 0.400000 0.000000
2.800000 0.400000 0.000000
2.900000 0.400000 0.000000
3.000000 0.400000 0.000000
3.100000 0.400000 0.000000
3.200000 0.400000 0.000000
3.300000 0.400000 0.000000
3.400000 0.400000 0.000000
3.500000 0.400000 0.000000
3.600000 0.400000 0.000000
3.700000 0.400000 0.000000
3.800000 0.400000 0.000000
3.900000 0.400000 0.000000
4.000000 0.400000 0.000000
0.000000 0.500000 0.000000
0.100000 0.500000 0.000000
0.200000 0.500000 0.000000
0.300000 0.500000 0.000000
0.400000 0.500000 0.000000
0.500000 0.500000 0.000000
0.600000 0.500000 0.000000
0.700000 0.500000 0.000000
0.800000 0.500000 0.000000
0.900000 0.500000 0.000000
1.000000 0.500000 0.000000
1.100000 0.500000 0.000000
1.200000 0.500000 0.000000
1.300000 0.500000 0.000000
1.400000 0.500000 0.000000
1.500000 0.500000 0.000000
1.600000 0.500000 0.000000
1.700000 0.500000 0.000000
1.800000 0.500000 0.000000
1.900000 0.500000 0.000000
2.000000 0.500000 0.000000
2.100000 0.500000 0.000000
2.200000 0.500000 0.000000
2.300000 0.500000 0.000000
2.400000 0.500000 0.000000
2.500000 0.500000 0.000000
2.600000 0.500000 0.000000
2.700000 0.500000 0.000000
2.800000 0.500000 0.000000
2.900000 0.500000 0.000000
3.000000 0.500000 0.000000
3.100000 0.500000 0.000000
3.200000 0.500000 0.000000
3.300000 0.500000 0.000000
3.400000 0.500000 0.000000
3.500000 0.500000 0.000000
3.600000 0.500000 0.000000
3.700000 0.500000 0.000000
3.800000 0.500000 0.000000
3.900000 0.500000 0.000000
4.000000 0.500000 0.000000
0.000000 0.600000 0.000000
0.100000 0.600000 0.000000
0.200000 0.600000 0.000000
0.300000 0.600000 0.000000
0.400000 0.600000 0.000000
0.500000 0.600000 0.000000
0.600000 0.600000 0.000000
0.700000 0.600000 0.000000
0.800000 0.600000 0.000000
0.900000 0.600000 0.000000
1.000000 0.600000 0.000000
1.100000 0.600000 0.000000
1.200000 0.600000 0.000000
1.300000 0.600000 0.000000
1.400000 0.600000 0.000000
1.500000 0.600000 0.000000
1.600000 0.600000 0.000000
1.700000 0.600000 0.000000
1.800000 0.600000 0.000000
1.900000 0.600000 0.000000
2.000000 0.600000 0.000000
2.100000 0.600000 0.000000
2.200000 0.600000 0.000000
2.300000 0.600000 0.000000
2.400000 0.600000 0.000000
2.500000 0.600000 0.000000
2.600000 0.600000 0.000000
2.700000 0.600000 0.000000
2.800000 0.600000 0.000000
2.900000 0.600000 0.000000
3.000000 0.600000 0.000000
3.100000 0.600000 0.000000
3.200000 0.600000 0.000000
3.300000 0.600000 0.000000
3.400000 0.600000 0.000000
3.500000 0.600000 0.000000
3.600000 0.600000 0.000000
3.700000 0.600000 0.000000
3.800000 0.600000 0.000000
3.900000 0.600000 0.000000
4.000000 0.600000 0.000000
0.000000 0.700000 0.000000
0.100000 0.700000 0.000000
0.200000 0.700000 0.000000
0.300000 0.700000 0.000000
0.400000 0.700000 0.000000
0.500000 0.700000 0.000000
0.600000 0.700000 0.000000
0.700000 0.700000 0.000000
0.800000 0.700000 0.000000
0.900000 0.700000 0.000000
1.000000 0.700000 0.000000
1.100000 0.700000 0.000000
1.200000 0.700000 0.000000
1.300000 0.700000 0.000000
1.400000 0.700000 0.000000
1.500000 0.700000 0.000000
1.600000 0.700000 0.000000
1.700000 0.700000 0.000000
1.800000 0.700000 0.000000
1.900000 0.700000 0.000000
2.000000 0.700000 0.000000
2.100000 0.700000 0.000000
2.200000 0.700000 0.000000
2.300000 0.700000 0.000000
2.400000 0.700000 0.000000
2.500000 0.700000 0.000000
2.600000 0.700000 0.000000
2.700000 0.700000 0.000000
2.800000 0.700000 0.000000
2.900000 0.700000 0.000000
3.000000 0.700000 0.000000
3.100000 0.700000 0.000000
3.200000 0.700000 0.000000
3.300000 0.700000 0.000000
3.400000 0.700000 0.000000
3.500000 0.700000 0.000000
3.600000 0.700000 0.000000
3.700000 0.700000 0.000000
3.800000 0.700000 0.000000
3.900000 0.700000 0.000000
4.000000 0.700000 0.000000
0.000000 0.800000 0.000000
0.100000 0.800000 0.000000
0.200000 0.800000 0.000000
0.300000 0.800000 0.000000
0.400000 0.800000 0.000000
0.500000 0.800000 0.000000
0.600000 0.800000 0.000000
0.700000 0.800000 0.000000
0.800000 0.800000 0.000000
0.900000 0.800000 0.000000
1.000000 0.800000 0.000000
1.100000 0.800000 0.000000
1.200000 0.800000 0.000000
1.300000 0.800000 0.000000
1.400000 0.800000 0.000000
1.500000 0.800000 0.000000
1.600000 0.800000 0.000000
1.700000 0.800000 0.000000
1.800000 0.800000 0.000000
1.900000 0.800000 0.000000
2.000000 0.800000 0.000000
2.100000 0.800000 0.000000
2.200000 0.800000 0.000000
2.300000 0.800000 0.000000
2.400000 0.800000 0.000000
2.500000 0.800000 0.000000
2.600000 0.800000 0.000000
2.700000 0.800000 0.000000
2.800000 0.800000 0.000000
2.900000 0.800000 0.000000
3.000000 0.800000 0.000000
3.100000 0.800000 0.000000
3.200000 0.800000 0.000000
3.300000 0.800000 0.000000
3.400000 0.800000 0.000000
3.500000 0.800000 0.000000
3.600000 0.800000 0.000000
[...]
CELL_DATA 16000
SCALARS pressure float 1
LOOKUP_TABLE default
37.5772
37.4033
37.0649
36.5906
36.0019
35.3113
34.5232
33.6357
32.6436
31.5417
30.3279
29.0068
27.5909
26.1001
24.5599
22.9986
21.4446
19.9252
18.4644
17.0814
15.7887
14.591
13.4862
12.4665
11.5207
10.6361
9.80041
9.00242
8.23264
7.48344
6.74887
6.02444
5.30691
4.59394
3.88391
3.17573
2.46871
1.76243
1.05675
0.351765
37.6313
37.4331
37.0813
36.5995
36.0068
35.3143
34.5256
33.6383
32.6468
31.5454
30.3318
29.0103
27.5934
26.1014
24.5601
22.9975
21.4425
19.9222
18.4609
17.0776
15.7851
14.588
13.4841
12.4652
11.5201
10.6361
9.80086
9.00309
8.23341
7.48421
6.74958
6.02507
5.30743
4.59436
3.88425
3.176
2.46891
1.76256
1.0568
0.351677
37.7525
37.5193
37.145
36.6494
36.0494
35.3544
34.5665
33.682
32.6935
31.5935
30.3782
29.0511
27.6251
26.1215
24.5675
22.9923
21.4254
19.8947
18.4251
17.0368
15.7428
14.5475
13.4478
12.4345
11.4954
10.617
9.78659
8.9928
8.22622
7.47933
6.74637
6.02303
5.30619
4.59365
3.88386
3.17581
2.46881
1.76249
1.05668
0.351496
37.9209
37.6469
37.2447
36.7318
36.1232
35.4264
34.6418
33.7632
32.7805
31.6832
30.4646
29.1267
27.6832
26.1577
24.5801
22.9815
21.3925
19.8423
18.3573
16.9596
15.6629
14.4711
13.3793
12.3764
11.4484
10.5804
9.7591
8.97276
8.21201
7.46951
6.73975
6.01869
5.30343
4.59194
3.88285
3.17523
2.46848
1.76227
1.05649
0.351332
38.1159
37.8007
37.369
36.8381
36.2212
35.5245
34.746
33.8769
32.9032
31.8099
30.5866
29.2332
27.7643
26.2075
24.5963
22.9646
21.3444
19.7665
18.2598
16.8488
15.5486
14.3623
13.2822
12.2944
11.3822
10.5291
9.72054
8.94464
8.19202
7.45566
6.73038
6.0125
5.29945
4.58946
3.88135
3.17435
2.46798
1.76198
1.0563
0.35122
38.3171
37.9643
37.5048
36.957
36.3335
35.6391
34.8696
34.0131
33.0512
31.9636
30.7348
29.3622
27.8619
26.2664
24.6144
22.9426
21.2847
19.6731
18.1398
16.7129
15.4091
14.23
13.1649
12.1958
11.303
10.4678
9.67467
8.91125
8.16834
7.43924
6.71926
6.00514
5.2947
4.58648
3.87954
3.17329
2.46738
1.76165
1.05613
0.351166
38.5054
38.1207
37.6374
37.0755
36.4476
35.7573
34.9987
34.1566
33.2083
32.1276
30.8935
29.5002
27.9658
26.3285
24.6328
22.9183
21.2202
19.5725
18.0105
16.5667
15.2595
14.089
13.0404
12.0918
11.2198
10.4038
9.62686
8.87654
8.14375
7.42223
6.70775
5.99753
5.28978
4.58339
3.87765
3.17218
2.46676
1.76133
1.05599
0.35116
38.6636
38.2544
37.7525
37.1799
36.5495
35.8642
35.1166
34.2888
33.3538
32.2803
31.0416
29.6292
28.0625
26.3861
24.6495
22.8953
21.1599
19.4784
17.8896
16.4301
15.1202
13.9581
12.9255
11.9961
11.1436
10.3453
9.58334
8.84503
8.12148
7.40684
6.69734
5.99065
5.28534
4.58059
3.87595
3.17119
2.46621
1.76106
1.05589
0.351182
38.7777
38.3517
37.8373
37.2576
36.6262
35.9454
35.2067
34.3903
33.4661
32.3985
31.1566
29.7294
28.1378
26.4308
24.6625
22.8775
21.1132
19.4054
17.7958
16.3242
15.0124
13.8572
12.837
11.9227
11.0854
10.3006
9.55021
8.82108
8.10458
7.39518
6.68947
5.98545
5.28198
4.57848
3.87467
3.17044
2.4658
1.76086
1.05583
0.351212
38.8374
38.403
37.8822
37.2992
36.6674
35.9892
35.2556
34.4456
33.5274
32.4631
31.2196
29.7843
28.179
26.4554
24.6697
22.8679
21.0877
19.3656
17.7446
16.2665
14.9537
13.8022
12.789
11.8829
11.0538
10.2765
9.53232
8.80816
8.09547
7.38889
6.68523
5.98264
5.28017
4.57735
3.87398
3.17003
2.46558
1.76076
1.05581
0.351233
38.8376
38.4032
37.8824
37.2993
36.6675
35.9893
35.2557
34.4457
33.5276
32.4633
31.2198
29.7845
28.1793
26.4556
24.6699
22.8681
21.0879
19.3658
17.7447
16.2666
14.9538
13.8023
12.789
11.8829
11.0538
10.2765
9.53231
8.80815
8.09546
7.38889
6.68522
5.98264
5.28017
4.57734
3.87397
3.17003
2.46558
1.76076
1.05581
0.351235
38.7781
38.3521
37.8377
37.2581
36.6266
35.9458
35.2072
34.3908
33.4667
32.3991
31.1573
29.7301
28.1384
26.4314
24.6631
22.8781
21.1136
19.4059
17.7962
16.3246
15.0127
13.8573
12.8371
11.9228
11.0854
10.3006
9.5502
8.82106
8.10456
7.39516
6.68945
5.98543
5.28197
4.57847
3.87466
3.17043
2.4658
1.76086
1.05584
0.351218
38.6643
38.255
37.7532
37.1806
36.5502
35.865
35.1174
34.2897
33.3548
32.2813
31.0427
29.6303
28.0636
26.3871
24.6504
22.8961
21.1606
19.4791
17.8901
16.4305
15.1205
13.9583
12.9256
11.9962
11.1436
10.3452
9.5833
8.84498
8.12144
7.4068
6.69731
5.99062
5.28531
4.58057
3.87594
3.17118
2.46621
1.76105
1.0559
0.351191
38.5063
38.1216
37.6384
37.0764
36.4486
35.7584
34.9998
34.1579
33.2096
32.1291
30.895
29.5018
27.9673
26.3299
24.634
22.9192
21.2211
19.5732
18.011
16.5671
15.2598
14.0891
13.0405
12.0918
11.2198
10.4037
9.62679
8.87647
8.14369
7.42217
6.7077
5.99748
5.28974
4.58336
3.87763
3.17217
2.46675
1.76132
1.056
0.351172
38.3182
37.9654
37.5059
36.9581
36.3348
35.6404
34.8711
34.0146
33.0529
31.9654
30.7367
29.3641
27.8637
26.2681
24.6158
22.9437
21.2856
19.6737
18.1402
16.7131
15.4092
14.23
13.1648
12.1957
11.3029
10.4677
9.67456
8.91114
8.16824
7.43916
6.71919
6.00509
5.29465
4.58644
3.87951
3.17327
2.46737
1.76164
1.05613
0.35118
38.1171
37.802
37.3703
36.8394
36.2226
35.526
34.7477
33.8787
32.9051
31.812
30.5887
29.2353
27.7663
26.2092
24.5978
22.9657
21.3453
19.767
18.2601
16.8489
15.5486
14.3621
13.2821
12.2943
11.382
10.5289
9.72038
8.9445
8.1919
7.45556
6.73029
6.01243
5.29939
4.58941
3.88132
3.17433
2.46796
1.76197
1.0563
0.351234
37.9223
37.6483
37.246
36.7333
36.1247
35.4281
34.6436
33.7651
32.7827
31.6854
30.4669
29.129
27.6853
26.1596
24.5817
22.9827
21.3933
19.8428
18.3575
16.9596
15.6627
14.4708
13.379
12.3762
11.4481
10.5802
9.7589
8.97259
8.21186
7.46939
6.73965
6.01861
5.30337
4.5919
3.88282
3.1752
2.46847
1.76227
1.05649
0.351345
37.7539
37.5207
37.1464
36.6509
36.051
35.3561
34.5683
33.684
32.6956
31.5958
30.3806
29.0534
27.6272
26.1234
24.569
22.9935
21.4262
19.8951
18.4253
17.0367
15.7426
14.5472
13.4474
12.4342
11.4951
10.6167
9.78636
8.99261
8.22606
7.4792
6.74626
6.02294
5.30613
4.5936
3.88382
3.17578
2.46879
1.76248
1.05668
0.351506
37.6328
37.4345
37.0827
36.601
36.0084
35.316
34.5275
33.6403
32.649
31.5477
30.3341
29.0126
27.5956
26.1033
24.5616
22.9987
21.4433
19.9227
18.461
17.0775
15.7848
14.5877
13.4837
12.4649
11.5198
10.6359
9.80061
9.00289
8.23325
7.48407
6.74947
6.02498
5.30736
4.59431
3.88421
3.17597
2.46889
1.76255
1.0568
0.351684
37.5786
37.4047
37.0664
36.5921
36.0034
35.313
34.525
33.6377
32.6458
31.544
30.3303
29.0091
27.593
26.102
24.5615
22.9997
21.4453
19.9256
18.4645
17.0813
15.7884
14.5907
13.4859
12.4662
11.5204
10.6358
9.80016
9.00221
8.23247
7.4833
6.74876
6.02436
5.30684
4.59389
3.88387
3.1757
2.46869
1.76242
1.05675
0.351767
37.6313
37.4331
37.0813
36.5995
36.0068
35.3143
34.5256
33.6383
32.6468
31.5453
30.3317
29.0102
27.5934
26.1014
24.5601
22.9975
21.4425
19.9222
18.4609
17.0776
15.7851
14.588
13.4841
12.4652
11.5201
10.6362
9.80086
9.0031
8.23342
7.48421
6.74958
6.02507
5.30743
4.59436
3.88425
3.176
2.46891
1.76256
1.0568
0.351677
37.671
37.4353
37.0637
36.5719
35.9735
35.2772
34.4853
33.5954
32.6024
31.5011
30.2899
28.9733
27.5638
26.081
24.55
22.9982
21.4537
19.9428
18.4892
17.1114
15.8218
14.6251
13.5194
12.4974
11.5482
10.6598
9.82014
9.01843
8.24534
7.49329
6.75636
6.03006
5.31105
4.59695
3.88607
3.17728
2.46982
1.76322
1.05725
0.351807
37.7857
37.5058
37.1062
36.5972
35.9891
35.2876
34.4938
33.6039
32.6118
31.5113
30.3
28.982
27.5697
26.0836
24.5493
22.9944
21.4471
19.934
18.4788
17.1006
15.8116
14.6165
13.513
12.4931
11.546
10.6591
9.82064
9.01963
8.24688
7.49493
6.75793
6.03147
5.31226
4.59795
3.88689
3.17793
2.47031
1.76357
1.05744
0.351768
37.9556
37.6252
37.1925
36.6628
36.043
35.3368
34.5429
33.6557
32.6668
31.5677
30.354
29.0287
27.6048
26.1043
24.5546
22.9848
21.4236
19.8985
18.434
17.0504
15.7604
14.5684
13.4706
12.458
11.5182
10.6381
9.80539
9.00897
8.23973
7.49033
6.75512
6.02986
5.31143
4.59761
3.88682
3.178
2.47044
1.76368
1.05749
0.351724
38.1567
37.7749
37.3077
36.7564
36.1252
35.4155
34.6238
33.742
32.7587
31.6619
30.444
29.1064
27.663
26.1387
24.5638
22.9693
21.3852
19.8398
18.3596
16.9668
15.675
14.4875
13.399
12.3978
11.4699
10.6009
9.77771
8.98903
8.22578
7.48086
6.74889
6.0259
5.30901
4.59621
3.88607
3.17765
2.4703
1.76365
1.05748
0.351723
38.3658
37.9362
37.4365
36.865
36.2238
35.5124
34.7254
33.8515
32.8759
31.7824
30.5593
29.2059
27.7371
26.1821
24.5751
22.9493
21.3359
19.7645
18.2639
16.8593
15.5652
14.3839
13.3072
12.3207
11.408
10.5531
9.74194
8.96306
8.20744
7.46825
6.74044
6.0204
5.30555
4.5941
3.88486
3.17699
2.46998
1.76351
1.05746
0.35177
38.562
38.0915
37.5636
36.9747
36.3258
35.6146
34.8338
33.9696
33.0031
31.9137
30.6854
29.3146
27.8177
26.2289
24.587
22.9273
21.2821
19.6822
18.1592
16.7415
15.4454
14.2712
13.2078
12.2374
11.3412
10.5015
9.70333
8.93499
8.18756
7.45451
6.73119
6.01432
5.30167
4.59171
3.88344
3.1762
2.46957
1.76334
1.05743
0.351851
38.727
38.2243
37.6742
37.072
36.4176
35.7079
34.9338
34.0793
33.122
32.0372
30.8042
29.4171
27.8935
26.2727
24.598
22.9066
21.2317
19.6049
18.0605
16.6308
15.333
14.1658
13.1151
12.1601
11.2794
10.4538
9.66764
8.90904
8.16916
7.44178
6.72258
6.00865
5.29803
4.58945
3.88209
3.17543
2.46917
1.76317
1.0574
0.351945
38.8459
38.3211
37.7557
37.1445
36.4869
35.7789
35.0105
34.1639
33.2141
32.1331
30.8967
29.4971
27.9526
26.307
24.6067
22.8907
21.1925
19.5449
17.9839
16.5448
15.2458
14.0843
13.0436
12.1005
11.2318
10.4171
9.64027
8.88914
8.15506
7.43202
6.71598
6.00429
5.29523
4.5877
3.88104
3.17483
2.46886
1.76304
1.05739
0.352025
38.9082
38.3721
37.799
37.1833
36.5241
35.8174
35.0522
34.2099
33.2644
32.1855
30.9474
29.5409
27.9852
26.326
24.6117
22.8821
21.1713
19.5121
17.9421
16.498
15.1984
14.04
13.0047
12.0681
11.206
10.3972
9.62544
8.87837
8.14742
7.42673
6.7124
6.00192
5.2937
4.58675
3.88046
3.1745
2.46869
1.76296
1.05738
0.352071
38.9083
38.3723
37.7992
37.1834
36.5243
35.8175
35.0524
34.2101
33.2645
32.1857
30.9476
29.5411
27.9854
26.3261
24.6118
22.8822
21.1714
19.5123
17.9422
16.4981
15.1985
14.04
13.0047
12.0681
11.206
10.3972
9.62543
8.87836
8.14741
7.42672
6.71239
6.00192
5.2937
4.58674
3.88046
3.1745
2.46869
1.76296
1.05738
0.352072
38.8464
38.3215
37.7562
37.1449
36.4873
35.7794
35.011
34.1644
33.2146
32.1336
30.8973
29.4977
27.9532
26.3076
24.6072
22.8911
21.193
19.5453
17.9842
16.5451
15.246
14.0845
13.0437
12.1005
11.2318
10.4171
9.64025
8.88912
8.15503
7.43199
6.71596
6.00427
5.29521
4.58769
3.88103
3.17482
2.46885
1.76303
1.05738
0.352026
38.7277
38.225
37.6748
37.0726
36.4183
35.7086
34.9346
34.0801
33.1229
32.0381
30.8052
29.4181
27.8945
26.2736
24.5988
22.9073
21.2323
19.6055
18.061
16.6312
15.3332
14.166
13.1152
12.1601
11.2794
10.4537
9.6676
8.90899
8.16911
7.44174
6.72255
6.00862
5.298
4.58943
3.88207
3.17542
2.46916
1.76316
1.05739
0.351946
38.5629
38.0924
37.5645
36.9756
36.3267
35.6157
34.8349
33.9708
33.0044
31.9151
30.6868
29.316
27.819
26.2301
24.588
22.9282
21.2828
19.6828
18.1596
16.7419
15.4456
14.2713
13.2078
12.2374
11.3412
10.5014
9.70326
8.93492
8.18749
7.45445
6.73113
6.01427
5.30163
4.59168
3.88342
3.17618
2.46956
1.76333
1.05741
0.351854
38.3669
37.9373
37.4376
36.8661
36.225
35.5137
34.7267
33.853
32.8775
31.7841
30.561
29.2076
27.7387
26.1835
24.5764
22.9503
21.3367
19.7651
18.2643
16.8595
15.5653
14.3839
13.3072
12.3206
11.4079
10.553
9.74182
8.96296
8.20735
7.46817
6.74037
6.02034
5.3055
4.59407
3.88483
3.17696
2.46996
1.7635
1.05744
0.351773
38.158
37.7761
37.3089
36.7577
36.1265
35.4169
34.6254
33.7438
32.7605
31.6638
30.446
29.1084
27.6649
26.1403
24.5652
22.9704
21.386
19.8403
18.3599
16.9669
15.6749
14.4874
13.3988
12.3976
11.4697
10.6008
9.77756
8.98889
8.22566
7.48076
6.7488
6.02583
5.30896
4.59616
3.88604
3.17762
2.47028
1.76363
1.05747
0.351727
37.957
37.6266
37.1938
36.6642
36.0445
35.3384
34.5446
33.6576
32.6688
31.5699
30.3562
29.0309
27.6068
26.1061
24.5561
22.9859
21.4244
19.899
18.4342
17.0504
15.7603
14.5682
13.4704
12.4577
11.5179
10.6379
9.80519
9.00881
8.23958
7.49021
6.75502
6.02978
5.31137
4.59756
3.88679
3.17798
2.47042
1.76367
1.05747
0.351729
37.7871
37.5072
37.1076
36.5987
35.9906
35.2893
34.4956
33.6059
32.6139
31.5135
30.3023
28.9842
27.5718
26.0855
24.5507
22.9955
21.4479
19.9345
18.479
17.1005
15.8114
14.6162
13.5127
12.4928
11.5457
10.6589
9.82042
9.01944
8.24672
7.4948
6.75783
6.03138
5.31219
4.5979
3.88685
3.17789
2.47029
1.76355
1.05742
0.351772
37.6724
37.4367
37.0651
36.5733
35.9751
35.2789
34.4871
33.5974
32.6045
31.5033
30.2922
28.9755
27.5659
26.0829
24.5515
22.9994
21.4544
19.9433
18.4893
17.1113
15.8215
14.6248
13.5191
12.497
11.5479
10.6595
9.8199
9.01823
8.24517
7.49315
6.75625
6.02997
5.31098
4.59689
3.88603
3.17725
2.4698
1.76321
1.05724
0.351811
37.6327
37.4345
37.0827
36.601
36.0083
35.316
34.5274
33.6402
32.6489
31.5476
30.3341
29.0125
27.5955
26.1033
24.5616
22.9987
21.4433
19.9226
18.461
17.0775
15.7848
14.5877
13.4837
12.4649
11.5198
10.6359
9.80062
9.00289
8.23325
7.48408
6.74947
6.02498
5.30737
4.59431
3.88421
3.17597
2.46889
1.76255
1.05679
0.351679
37.7525
37.5193
37.145
36.6494
36.0494
35.3544
34.5665
33.6819
32.6934
31.5934
30.3781
29.051
27.625
26.1214
24.5674
22.9923
21.4254
19.8947
18.4251
17.0368
15.7428
14.5476
13.4478
12.4345
11.4954
10.617
9.78661
8.99282
8.22623
7.47934
6.74637
6.02303
5.30619
4.59365
3.88386
3.17581
2.46881
1.76249
1.05668
0.351496
37.7857
37.5058
37.1062
36.5972
35.9891
35.2876
34.4938
33.6039
32.6118
31.5113
30.3
28.9819
27.5697
26.0836
24.5492
22.9943
21.4471
19.934
18.4789
17.1006
15.8116
14.6165
13.513
12.4932
11.546
10.6592
9.82066
9.01964
8.24689
7.49493
6.75794
6.03147
5.31226
4.59795
3.88689
3.17793
2.47031
1.76357
1.05744
0.351768
37.8936
37.5652
37.133
36.6036
35.983
35.2742
34.4762
33.5845
32.592
31.4924
30.2824
28.9659
27.5556
26.0721
24.5414
22.9909
21.4481
19.9392
18.4876
17.1124
15.826
14.6329
13.5303
12.5105
11.5624
10.6741
9.83371
9.0307
8.256
7.50227
6.76372
6.03594
5.31567
4.60052
3.8888
3.17934
2.47135
1.7643
1.05788
0.351816
38.0621
37.6784
37.2089
36.6556
36.0209
35.3052
34.5054
33.615
32.6253
31.5273
30.3161
28.9942
27.5748
26.0808
24.5399
22.9802
21.4292
19.9128
18.4556
17.078
15.7926
14.6033
13.5063
12.4923
11.5496
10.6658
9.82884
9.02827
8.25521
7.50248
6.76448
6.03695
5.31673
4.60152
3.88968
3.18008
2.47195
1.76475
1.05814
0.351856
38.2671
37.8261
37.3179
36.7398
36.0913
35.3703
34.5714
33.6857
32.7015
31.6064
30.3918
29.0582
27.6201
26.1043
24.5419
22.9622
21.3924
19.8592
18.3887
17.0041
15.7191
14.536
13.4487
12.4457
11.5136
10.6391
9.80986
9.01527
8.24664
7.49709
6.76129
6.03521
5.31592
4.60127
3.88975
3.1803
2.47221
1.765
1.05833
0.351948
38.4837
37.9884
37.4433
36.8421
36.1815
35.4572
34.6619
33.784
32.8082
31.7175
30.4985
29.1485
27.6836
26.1374
24.5455
22.9384
21.3428
19.7855
18.2956
16.9009
15.6163
14.4418
13.3677
12.3796
11.462
10.6002
9.78149
8.99521
8.23289
7.48795
6.75542
6.0316
5.31381
4.60013
3.88922
3.18013
2.47223
1.76511
1.05846
0.352095
38.6888
38.1461
37.5687
36.9476
36.2774
35.5521
34.7625
33.8945
32.9291
31.8445
30.6212
29.2525
27.7559
26.1748
24.5498
22.9121
21.2874
19.7024
18.1893
16.783
15.4993
14.3351
13.2763
12.3051
11.4037
10.5561
9.74913
8.97213
8.21687
7.47713
6.74832
6.02709
5.31106
4.59854
3.88837
3.17973
2.47211
1.76513
1.05858
0.352276
38.8622
38.2819
37.6788
37.0421
36.365
35.6403
34.8573
33.9996
33.0451
31.9671
30.7405
29.3537
27.8257
26.2107
24.5542
22.8875
21.235
19.6229
18.0866
16.6692
15.387
14.2332
13.1894
12.2345
11.3485
10.5143
9.71843
8.95016
8.20155
7.46671
6.74142
6.02265
5.30831
4.59691
3.88746
3.17928
2.47193
1.76512
1.05867
0.352458
38.9876
38.3811
37.7604
37.1131
36.4317
35.7082
34.9307
34.0816
33.136
32.0637
30.8347
29.4338
27.8815
26.2397
24.5582
22.8685
21.1939
19.5604
18.0061
16.5799
15.299
14.1536
13.1217
12.1796
11.3056
10.4819
9.6946
8.93309
8.18962
7.45857
6.73601
6.01916
5.30612
4.59559
3.88671
3.17889
2.47176
1.76509
1.05873
0.352604
39.0533
38.4335
37.8037
37.1511
36.4676
35.745
34.9708
34.1264
33.1859
32.1167
30.8864
29.4779
27.9124
26.2561
24.5608
22.8583
21.1715
19.5262
17.9622
16.5313
15.2511
14.1102
13.0848
12.1497
11.2822
10.4643
9.68163
8.92379
8.18311
7.45413
6.73305
6.01724
5.30491
4.59486
3.88629
3.17867
2.47167
1.76507
1.05877
0.352686
39.0535
38.4337
37.8038
37.1512
36.4678
35.7451
34.9709
34.1266
33.186
32.1168
30.8866
29.4781
27.9126
26.2563
24.5609
22.8585
21.1717
19.5264
17.9624
16.5315
15.2512
14.1102
13.0849
12.1497
11.2823
10.4643
9.68162
8.92378
8.1831
7.45412
6.73304
6.01723
5.3049
4.59486
3.88629
3.17867
2.47167
1.76507
1.05877
0.352686
38.988
38.3815
37.7608
37.1135
36.4321
35.7086
34.9312
34.082
33.1365
32.0642
30.8352
29.4344
27.882
26.2403
24.5587
22.869
21.1944
19.5608
18.0066
16.5803
15.2993
14.1537
13.1218
12.1796
11.3056
10.4819
9.69459
8.93307
8.18959
7.45855
6.73599
6.01914
5.3061
4.59558
3.8867
3.17888
2.47176
1.76509
1.05873
0.352604
38.8629
38.2825
37.6795
37.0428
36.3657
35.6411
34.858
34.0004
33.0459
31.9681
30.7415
29.3547
27.8267
26.2116
24.555
22.8882
21.2356
19.6235
18.0871
16.6696
15.3873
14.2334
13.1895
12.2345
11.3485
10.5143
9.7184
8.95012
8.2015
7.46667
6.74138
6.02262
5.30828
4.59689
3.88744
3.17926
2.47192
1.76511
1.05866
0.352456
38.6897
38.1471
37.5696
36.9485
36.2783
35.5531
34.7636
33.8957
32.9304
31.8458
30.6226
29.2539
27.7572
26.176
24.5508
22.913
21.2882
19.703
18.1897
16.7833
15.4995
14.3352
13.2764
12.3051
11.4036
10.556
9.74906
8.97206
8.2168
7.47707
6.74826
6.02704
5.31102
4.59851
3.88834
3.17972
2.4721
1.76513
1.05857
0.352274
38.4848
37.9895
37.4444
36.8432
36.1826
35.4585
34.6633
33.7855
32.8098
31.7192
30.5003
29.1503
27.6852
26.1389
24.5468
22.9393
21.3435
19.786
18.2959
16.9011
15.6164
14.4418
13.3676
12.3795
11.4619
10.6001
9.78138
8.99511
8.2328
7.48787
6.75535
6.03154
5.31376
4.6001
3.88919
3.18011
2.47222
1.7651
1.05845
0.352093
38.2684
37.8274
37.3191
36.7411
36.0927
35.3717
34.5729
33.6874
32.7033
31.6084
30.3938
29.0602
27.6219
26.106
24.5433
22.9632
21.3932
19.8596
18.3889
17.0041
15.719
14.5359
13.4485
12.4455
11.5135
10.639
9.80971
9.01513
8.24652
7.49699
6.7612
6.03514
5.31586
4.60122
3.88971
3.18027
2.4722
1.76499
1.05831
0.351946
38.0635
37.6798
37.2103
36.657
36.0224
35.3068
34.5071
33.6169
32.6273
31.5295
30.3183
28.9963
27.5768
26.0826
24.5414
22.9813
21.4299
19.9132
18.4558
17.0779
15.7924
14.6031
13.506
12.492
11.5494
10.6655
9.82864
9.0281
8.25507
7.50236
6.76438
6.03687
5.31667
4.60147
3.88965
3.18006
2.47193
1.76474
1.05813
0.351855
37.895
37.5666
37.1344
36.6051
35.9846
35.2758
34.478
33.5864
32.5942
31.4946
30.2847
28.9682
27.5577
26.074
24.5429
22.992
21.4489
19.9396
18.4877
17.1123
15.8258
14.6326
13.53
12.5101
11.5621
10.6738
9.83349
9.03051
8.25584
7.50213
6.76361
6.03586
5.3156
4.60047
3.88876
3.17931
2.47132
1.76429
1.05786
0.351815
37.7871
37.5073
37.1076
36.5987
35.9906
35.2893
34.4956
33.6059
32.6139
31.5136
30.3023
28.9842
27.5718
26.0855
24.5508
22.9955
21.4478
19.9344
18.4789
17.1004
15.8113
14.6162
13.5126
12.4928
11.5456
10.6589
9.82041
9.01943
8.24672
7.49479
6.75783
6.03138
5.31219
4.5979
3.88685
3.1779
2.47029
1.76356
1.05743
0.351769
37.7539
37.5207
37.1463
36.6508
36.0509
35.356
34.5682
33.6839
32.6956
31.5957
30.3805
29.0534
27.6272
26.1234
24.569
22.9934
21.4261
19.895
18.4252
17.0366
15.7425
14.5472
13.4474
12.4341
11.4951
10.6167
9.78636
8.99261
8.22606
7.4792
6.74626
6.02295
5.30613
4.5936
3.88383
3.17578
2.4688
1.76248
1.05667
0.351495
37.9209
37.6469
37.2446
36.7318
36.1232
35.4264
34.6417
33.7631
32.7804
31.6831
30.4644
29.1266
27.683
26.1576
24.5801
22.9815
21.3925
19.8423
18.3574
16.9597
15.663
14.4712
13.3794
12.3765
11.4484
10.5805
9.75915
8.9728
8.21203
7.46953
6.73976
6.0187
5.30343
4.59195
3.88285
3.17523
2.46848
1.76227
1.05649
0.351332
37.9556
37.6252
37.1925
36.6628
36.043
35.3368
34.5429
33.6556
32.6667
31.5676
30.3539
29.0286
27.6047
26.1042
24.5546
22.9848
21.4236
19.8985
18.434
17.0504
15.7605
14.5684
13.4707
12.458
11.5182
10.6382
9.80542
9.009
8.23974
7.49034
6.75513
6.02986
5.31144
4.59761
3.88683
3.17801
2.47044
1.76369
1.05749
0.351725
38.0621
37.6784
37.2089
36.6556
36.0209
35.3052
34.5054
33.615
32.6252
31.5273
30.316
28.9941
27.5747
26.0808
24.5399
22.9802
21.4292
19.9128
18.4556
17.078
15.7926
14.6034
13.5063
12.4923
11.5496
10.6658
9.82885
9.02829
8.25522
7.50248
6.76448
6.03695
5.31673
4.60152
3.88969
3.18009
2.47195