# vtk DataFile Version 2.0
I need something to put here
ASCII

DATASET STRUCTURED_GRID
DIMENSIONS 41 21 21
POINTS 18081 float
0.000000 0.000000 0.000000
0.100000 0.000000 0.000000
0.200000 0.000000 0.000000
0.300000 0.000000 0.000000
0.400000 0.000000 0.000000
0.500000 0.000000 0.000000
0.600000 0.000000 0.000000
0.700000 0.000000 0.000000
0.800000 0.000000 0.000000
0.900000 0.000000 0.000000
1.000000 0.000000 0.000000
1.100000 0.000000 0.000000
1.200000 0.000000 0.000000
1.300000 0.000000 0.000000
1.400000 0.000000 0.000000
1.500000 0.000000 0.000000
1.600000 0.000000 0.000000
1.700000 0.000000 0.000000
1.800000 0.000000 0.000000
1.900000 0.000000 0.000000
2.000000 0.000000 0.000000
2.100000 0.000000 0.000000
2.200000 0.000000 0.000000
2.300000 0.000000 0.000000
2.400000 0.000000 0.000000
2.500000 0.000000 0.000000
2.600000 0.000000 0.000000
2.700000 0.000000 0.000000
2.800000 0.000000 0.000000
2.900000 0.000000 0.000000
3.000000 0.000000 0.000000
3.100000 0.000000 0.000000
3.200000 0.000000 0.000000
3.300000 0.000000 0.000000
3.400000 0.000000 0.000000
3.500000 0.000000 0.000000
3.600000 0.000000 0.000000
3.700000 0.000000 0.000000
3.800000 0.000000 0.000000
3.900000 0.000000 0.000000
4.000000 0.000000 0.000000
0.000000 0.100000 0.000000
0.100000 0.100000 0.000000
0.200000 0.100000 0.000000
0.300000 0.100000 0.000000
0.400000 0.100000 0.000000
0.500000 0.100000 0.000000
0.600000 0.100000 0.000000
0.700000 0.100000 0.000000
0.800000 0.100000 0.000000
0.900000 0.100000 0.000000
1.000000 0.100000 0.000000
1.100000 0.100000 0.000000
1.200000 0.100000 0.000000
1.300000 0.100000 0.000000
1.400000 0.100000 0.000000
1.500000 0.100000 0.000000
1.600000 0.100000 0.000000
1.700000 0.100000 0.000000
1.800000 0.100000 0.000000
1.900000 0.100000 0.000000
2.000000 0.100000 0.000000
2.100000 0.100000 0.000000
2.200000 0.100000 0.000000
2.300000 0.100000 0.000000
2.400000 0.100000 0.000000
2.500000 0.100000 0.000000
2.600000 0.100000 0.000000
2.700000 0.100000 0.000000
2.800000 0.100000 0.000000
2.900000 0.100000 0.000000
3.000000 0.100000 0.000000
3.100000 0.100000 0.000000
3.200000 0.100000 0.000000
3.300000 0.100000 0.000000
3.400000 0.100000 0.000000
3.500000 0.100000 0.000000
3.600000 0.100000 0.000000
3.700000 0.100000 0.000000
3.800000 0.100000 0.000000
3.900000 0.100000 0.000000
4.000000 0.100000 0.000000
0.000000 0.200000 0.000000
0.100000 0.200000 0.000000
0.200000 0.200000 0.000000
0.300000 0.200000 0.000000
0.400000 0.200000 0.000000
0.500000 0.200000 0.000000
0.600000 0.200000 0.000000
0.700000 0.200000 0.000000
0.800000 0.200000 0.000000
0.900000 0.200000 0.000000
1.000000 0.200000 0.000000
1.100000 0.200000 0.000000
1.200000 0.200000 0.000000
1.300000 0.200000 0.000000
1.400000 0.200000 0.000000
1.500000 0.200000 0.000000
1.600000 0.200000 0.000000
1.700000 0.200000 0.000000
1.800000 0.200000 0.000000
1.900000 0.200000 0.000000
2.000000 0.200000 0.000000
2.100000 0.200000 0.000000
2.200000 0.200000 0.000000
2.300000 0.200000 0.000000
2.400000 0.200000 0.000000
2.500000 0.200000 0.000000
2.600000 0.200000 0.000000
2.700000 0.200000 0.000000
2.800000 0.200000 0.000000
2.900000 0.200000 0.000000
3.000000 0.200000 0.000000
3.100000 0.200000 0.000000
3.200000 0.200000 0.000000
3.300000 0.200000 0.000000
3.400000 0.200000 0.000000
3.500000 0.200000 0.000000
3.600000 0.200000 0.000000
3.700000 0.200000 0.000000
3.800000 0.200000 0.000000
3.900000 0.200000 0.000000
4.000000 0.200000 0.000000
0.000000 0.300000 0.000000
0.100000 0.300000 0.000000
0.200000 0.300000 0.000000
0.300000 0.300000 0.000000
0.400000 0.300000 0.000000
0.500000 0.300000 0.000000
0.600000 0.300000 0.000000
0.700000 0.300000 0.000000
0.800000 0.300000 0.000000
0.900000 0.300000 0.000000
1.000000 0.300000 0.000000
1.100000 0.300000 0.000000
1.200000 0.300000 0.000000
1.300000 0.300000 0.000000
1.400000 0.300000 0.000000
1.500000 0.300000 0.000000
1.600000 0.300000 0.000000
1.700000 0.300000 0.000000
1.800000 0.300000 0.000000
1.900000 0.300000 0.000000
2.000000 0.300000 0.000000
2.100000 0.300000 0.000000
2.200000 0.300000 0.000000
2.300000 0.300000 0.000000
2.400000 0.300000 0.000000
2.500000 0.300000 0.000000
2.600000 0.300000 0.000000
2.700000 0.300000 0.000000
2.800000 0.300000 0.000000
2.900000 0.300000 0.000000
3.000000 0.300000 0.000000
3.100000 0.300000 0.000000
3.200000 0.300000 0.000000
3.300000 0.300000 0.000000
3.400000 0.300000 0.000000
3.500000 0.300000 0.000000
3.600000 0.300000 0.000000
3.700000 0.300000 0.000000
3.800000 0.300000 0.000000
3.900000 0.300000 0.000000
4.000000 0.300000 0.000000
0.000000 0.400000 0.000000
0.100000 0.400000 0.000000
0.200000 0.400000 0.000000
0.300000 0.400000 0.000000
0.400000 0.400000 0.000000
0.500000 0.400000 0.000000
0.600000 0.400000 0.000000
0.700000 0.400000 0.000000
0.800000 0.400000 0.000000
0.900000 0.400000 0.000000
1.000000 0.400000 0.000000
1.100000 0.400000 0.000000
1.200000 0.400000 0.000000
1.300000 0.400000 0.000000
1.400000 0.400000 0.000000
1.500000 0.400000 0.000000
1.600000 0.400000 0.000000
1.700000 0.400000 0.000000
1.800000 0.400000 0.000000
1.900000 0.400000 0.000000
2.000000 0.400000 0.000000
2.100000 0.400000 0.000000
2.200000 0.400000 0.000000
2.300000 0.400000 0.000000
2.400000 0.400000 0.000000
2.500000 0.400000 0.000000
2.600000 0.400000 0.000000
2.700000 0.400000 0.000000
2.800000 0.400000 0.000000
2.900000 0.400000 0.000000
3.000000 0.400000 0.000000
3.100000 0.400000 0.000000
3.200000 0.400000 0.000000
3.300000 0.400000 0.000000
3.400000 0.400000 0.000000
3.500000 0.400000 0.000000
3.600000 0.400000 0.000000
3.700000 0.400000 0.000000
3.800000 0.400000 0.000000
3.900000 0.400000 0.000000
4.000000 0.400000 0.000000
0.000000 0.500000 0.000000
0.100000 0.500000 0.000000
0.200000 0.500000 0.000000
0.300000 0.500000 0.000000
0.400000 0.500000 0.000000
0.500000 0.500000 0.000000
0.600000 0.500000 0.000000
0.700000 0.500000 0.000000
0.800000 0.500000 0.000000
0.900000 0.500000 0.000000
1.000000 0.500000 0.000000
1.100000 0.500000 0.000000
1.200000 0.500000 0.000000
1.300000 0.500000 0.000000
1.400000 0.500000 0.000000
1.500000 0.500000 0.000000
1.600000 0.500000 0.000000
1.700000 0.500000 0.000000
1.800000 0.500000 0.000000
1.900000 0.500000 0.000000
2.000000 0.500000 0.000000
2.100000 0.500000 0.000000
2.200000 0.500000 0.000000
2.300000 0.500000 0.000000
2.400000 0.500000 0.000000
2.500000 0.500000 0.000000
2.600000 0.500000 0.000000
2.700000 0.500000 0.000000
2.800000 0.500000 0.000000
2.900000 0.500000 0.000000
3.000000 0.500000 0.000000
3.100000 0.500000 0.000000
3.200000 0.500000 0.000000
3.300000 0.500000 0.000000
3.400000 0.500000 0.000000
3.500000 0.500000 0.000000
3.600000 0.500000 0.000000
3.700000 0.500000 0.000000
3.800000 0.500000 0.000000
3.900000 0.500000 0.000000
4.000000 0.500000 0.000000
0.000000 0.600000 0.000000
0.100000 0.600000 0.000000
0.200000 0.600000 0.000000
0.300000 0.600000 0.000000
0.400000 0.600000 0.000000
0.500000 0.600000 0.000000
0.600000 0.600000 0.000000
0.700000 0.600000 0.000000
0.800000 0.600000 0.000000
0.900000 0.600000 0.000000
1.000000 0.600000 0.000000
1.100000 0.600000 0.000000
1.200000 0.600000 0.000000
1.300000 0.600000 0.000000
1.400000 0.600000 0.000000
1.500000 0.600000 0.000000
1.600000 0.600000 0.000000
1.700000 0.600000 0.000000
1.800000 0.600000 0.000000
1.900000 0.600000 0.000000
2.000000 0.600000 0.000000
2.100000 0.600000 0.000000
2.200000 0.600000 0.000000
2.300000 0.600000 0.000000
2.400000 0.600000 0.000000
2.500000 0.600000 0.000000
2.600000 0.600000 0.000000
2.700000 0.600000 0.000000
2.800000 0.600000 0.000000
2.900000 0.600000 0.000000
3.000000 0.600000 0.000000
3.100000 0.600000 0.000000
3.200000 0.600000 0.000000
3.300000 0.600000 0.000000
3.400000 0.600000 0.000000
3.500000 0.600000 0.000000
3.600000 0.600000 0.000000
3.700000 0.600000 0.000000
3.800000 0.600000 0.000000
3.900000 0.600000 0.000000
4.000000 0.600000 0.000000
0.000000 0.700000 0.000000
0.100000 0.700000 0.000000
0.200000 0.700000 0.000000
0.300000 0.700000 0.000000
0.400000 0.700000 0.000000
0.500000 0.700000 0.000000
0.600000 0.700000 0.000000
0.700000 0.700000 0.000000
0.800000 0.700000 0.000000
0.900000 0.700000 0.000000
1.000000 0.700000 0.000000
1.100000 0.700000 0.000000
1.200000 0.700000 0.000000
1.300000 0.700000 0.000000
1.400000 0.700000 0.000000
1.500000 0.700000 0.000000
1.600000 0.700000 0.000000
1.700000 0.700000 0.000000
1.800000 0.700000 0.000000
1.900000 0.700000 0.000000
2.000000 0.700000 0.000000
2.100000 0.700000 0.000000
2.200000 0.700000 0.000000
2.300000 0.700000 0.000000
2.400000 0.700000 0.000000
2.500000 0.700000 0.000000
2.600000 0.700000 0.000000
2.700000 0.700000 0.000000
2.800000 0.700000 0.000000
2.900000 0.700000 0.000000
3.000000 0.700000 0.000000
3.100000 0.700000 0.000000
3.200000 0.700000 0.000000
3.300000 0.700000 0.000000
3.400000 0.700000 0.000000
3.500000 0.700000 0.000000
3.600000 0.700000 0.000000
3.700000 0.700000 0.000000
3.800000 0.700000 0.000000
3.900000 0.700000 0.000000
4.000000 0.700000 0.000000
0.000000 0.800000 0.000000
0.100000 0.800000 0.000000
0.200000 0.800000 0.000000
0.300000 0.800000 0.000000
0.400000 0.800000 0.000000
0.500000 0.800000 0.000000
0.600000 0.800000 0.000000
0.700000 0.800000 0.000000
0.800000 0.800000 0.000000
0.900000 0.800000 0.000000
1.000000 0.800000 0.000000
1.100000 0.800000 0.000000
1.200000 0.800000 0.000000
1.300000 0.800000 0.000000
1.400000 0.800000 0.000000
1.500000 0.800000 0.000000
1.600000 0.800000 0.000000
1.700000 0.800000 0.000000
1.800000 0.800000 0.000000
1.900000 0.800000 0.000000
2.000000 0.800000 0.000000
2.100000 0.800000 0.000000
2.200000 0.800000 0.000000
2.300000 0.800000 0.000000
2.400000 0.800000 0.000000
2.500000 0.800000 0.000000
2.600000 0.800000 0.000000
2.700000 0.800000 0.000000
2.800000 0.800000 0.000000
2.900000 0.800000 0.000000
3.000000 0.800000 0.000000
3.100000 0.800000 0.000000
3.200000 0.800000 0.000000
3.300000 0.800000 0.000000
3.400000 0.800000 0.000000
3.500000 0.800000 0.000000
3.600000 0.800000 0.000000
[...]
CELL_DATA 16000
SCALARS pressure float 1
LOOKUP_TABLE default
26.2145
26.0318
25.6937
25.2426
24.7117
24.1253
23.5005
22.8492
22.1798
21.498
20.8078
20.112
19.4123
18.7102
18.0064
17.3016
16.5962
15.8905
15.1846
14.4786
13.7726
13.0665
12.3604
11.6543
10.9482
10.242
9.53573
8.82945
8.12315
7.41683
6.71049
6.00414
5.29779
4.59142
3.88506
3.17869
2.47231
1.76594
1.05957
0.353189
26.273
26.0631
25.7104
25.2514
24.7163
24.1276
23.5015
22.8496
22.1798
21.4979
20.8076
20.1118
19.4122
18.7101
18.0063
17.3015
16.5961
15.8904
15.1845
14.4786
13.7725
13.0665
12.3604
11.6543
10.9482
10.242
9.53572
8.82945
8.12315
7.41683
6.71049
6.00414
5.29779
4.59142
3.88505
3.17868
2.47231
1.76594
1.05957
0.35319
26.3931
26.1437
25.7642
25.2872
24.74
24.1433
23.5119
22.8564
22.1843
21.5008
20.8095
20.113
19.4129
18.7105
18.0066
17.3017
16.5962
15.8904
15.1845
14.4785
13.7725
13.0665
12.3604
11.6543
10.9482
10.242
9.53574
8.82946
8.12316
7.41683
6.7105
6.00415
5.29779
4.59142
3.88506
3.17869
2.47231
1.76594
1.05957
0.35319
26.5491
26.2552
25.8424
25.3414
24.7774
24.1689
23.5293
22.8682
22.1922
21.506
20.813
20.1153
19.4144
18.7115
18.0071
17.302
16.5963
15.8905
15.1845
14.4785
13.7725
13.0665
12.3605
11.6544
10.9482
10.242
9.53576
8.82948
8.12317
7.41685
6.7105
6.00415
5.29779
4.59143
3.88506
3.17869
2.47231
1.76594
1.05957
0.35319
26.7187
26.3814
25.9337
25.4063
24.8229
24.2006
23.5512
22.8832
22.2024
21.5129
20.8176
20.1183
19.4164
18.7128
18.0079
17.3024
16.5965
15.8905
15.1845
14.4785
13.7726
13.0666
12.3605
11.6544
10.9483
10.2421
9.5358
8.82951
8.12319
7.41686
6.71051
6.00416
5.2978
4.59143
3.88506
3.17869
2.47231
1.76594
1.05957
0.35319
26.8841
26.5079
26.0273
25.4741
24.8713
24.2347
23.5749
22.8996
22.2136
21.5205
20.8227
20.1218
19.4187
18.7142
18.0088
17.3029
16.5967
15.8906
15.1845
14.4785
13.7726
13.0666
12.3606
11.6545
10.9483
10.2421
9.53584
8.82954
8.12322
7.41688
6.71053
6.00417
5.2978
4.59143
3.88506
3.17869
2.47232
1.76594
1.05957
0.35319
27.0315
26.623
26.1139
25.5377
24.9172
24.2673
23.5979
22.9155
22.2245
21.528
20.8278
20.1252
19.421
18.7157
18.0097
17.3034
16.597
15.8906
15.1845
14.4785
13.7726
13.0667
12.3607
11.6546
10.9484
10.2422
9.53589
8.82958
8.12325
7.4169
6.71054
6.00418
5.29781
4.59144
3.88506
3.17869
2.47232
1.76594
1.05957
0.35319
27.1504
26.7172
26.1857
25.591
24.956
24.2952
23.6176
22.9293
22.234
21.5345
20.8322
20.1282
19.423
18.717
18.0105
17.3038
16.5971
15.8907
15.1845
14.4785
13.7726
13.0667
12.3607
11.6546
10.9485
10.2422
9.53594
8.82962
8.12328
7.41692
6.71056
6.00419
5.29782
4.59144
3.88507
3.17869
2.47232
1.76594
1.05957
0.353189
27.2336
26.7837
26.2368
25.6293
24.9841
24.3154
23.6319
22.9393
22.241
21.5393
20.8355
20.1304
19.4245
18.718
18.0111
17.3041
16.5973
15.8907
15.1845
14.4785
13.7726
13.0668
12.3608
11.6547
10.9485
10.2423
9.53598
8.82965
8.1233
7.41694
6.71057
6.0042
5.29782
4.59145
3.88507
3.17869
2.47232
1.76594
1.05957
0.353188
27.2763
26.818
26.2634
25.6493
24.9988
24.326
23.6395
22.9446
22.2447
21.5418
20.8372
20.1316
19.4253
18.7186
18.0115
17.3043
16.5973
15.8907
15.1845
14.4785
13.7727
13.0668
12.3608
11.6547
10.9485
10.2423
9.536
8.82967
8.12331
7.41695
6.71058
6.0042
5.29782
4.59145
3.88507
3.17869
2.47232
1.76594
1.05957
0.353188
27.2763
26.818
26.2634
25.6493
24.9988
24.326
23.6395
22.9446
22.2447
21.5418
20.8372
20.1316
19.4254
18.7186
18.0115
17.3044
16.5974
15.8907
15.1845
14.4785
13.7727
13.0668
12.3608
11.6547
10.9486
10.2423
9.536
8.82967
8.12332
7.41695
6.71058
6.0042
5.29783
4.59145
3.88507
3.17869
2.47232
1.76594
1.05956
0.353187
27.2336
26.7837
26.2369
25.6293
24.9841
24.3154
23.632
22.9394
22.2411
21.5393
20.8355
20.1305
19.4246
18.7181
18.0112
17.3042
16.5974
15.8908
15.1846
14.4786
13.7727
13.0668
12.3608
11.6547
10.9485
10.2423
9.53599
8.82966
8.12331
7.41695
6.71058
6.0042
5.29782
4.59145
3.88507
3.17869
2.47232
1.76594
1.05956
0.353187
27.1505
26.7172
26.1858
25.5911
24.9561
24.2952
23.6177
22.9293
22.2341
21.5346
20.8323
20.1283
19.4232
18.7172
18.0107
17.304
16.5973
15.8908
15.1846
14.4786
13.7727
13.0668
12.3608
11.6547
10.9485
10.2423
9.53597
8.82964
8.1233
7.41694
6.71057
6.0042
5.29782
4.59145
3.88507
3.17869
2.47232
1.76594
1.05956
0.353186
27.0316
26.623
26.114
25.5378
24.9173
24.2674
23.598
22.9156
22.2247
21.5281
20.8279
20.1254
19.4212
18.7159
18.0099
17.3036
16.5972
15.8908
15.1847
14.4787
13.7727
13.0668
12.3607
11.6546
10.9485
10.2422
9.53593
8.82961
8.12327
7.41692
6.71056
6.00419
5.29782
4.59144
3.88507
3.17869
2.47232
1.76594
1.05956
0.353186
26.8842
26.508
26.0274
25.4742
24.8714
24.2348
23.5751
22.8997
22.2137
21.5207
20.8229
20.122
19.4189
18.7145
18.0091
17.3032
16.597
15.8908
15.1847
14.4787
13.7727
13.0667
12.3607
11.6546
10.9484
10.2422
9.53589
8.82958
8.12325
7.4169
6.71055
6.00418
5.29781
4.59144
3.88506
3.17869
2.47232
1.76594
1.05956
0.353186
26.7188
26.3815
25.9338
25.4064
24.823
24.2007
23.5513
22.8833
22.2025
21.5131
20.8178
20.1186
19.4167
18.713
18.0082
17.3027
16.5968
15.8908
15.1847
14.4787
13.7727
13.0667
12.3606
11.6545
10.9483
10.2421
9.53585
8.82955
8.12323
7.41689
6.71053
6.00417
5.2978
4.59143
3.88506
3.17869
2.47231
1.76594
1.05956
0.353186
26.5492
26.2553
25.8425
25.3415
24.7775
24.169
23.5294
22.8683
22.1924
21.5062
20.8132
20.1155
19.4147
18.7117
18.0074
17.3023
16.5966
15.8907
15.1847
14.4787
13.7727
13.0667
12.3606
11.6545
10.9483
10.2421
9.53582
8.82953
8.12321
7.41687
6.71052
6.00416
5.2978
4.59143
3.88506
3.17869
2.47231
1.76594
1.05956
0.353186
26.3932
26.1438
25.7643
25.2873
24.7401
24.1434
23.5121
22.8566
22.1845
21.501
20.8097
20.1132
19.4132
18.7108
18.0069
17.302
16.5965
15.8907
15.1848
14.4788
13.7727
13.0667
12.3606
11.6545
10.9483
10.2421
9.5358
8.82951
8.12319
7.41686
6.71051
6.00416
5.2978
4.59143
3.88506
3.17869
2.47231
1.76594
1.05956
0.353186
26.2731
26.0632
25.7105
25.2515
24.7164
24.1277
23.5016
22.8497
22.18
21.4981
20.8078
20.112
19.4124
18.7103
18.0066
17.3018
16.5964
15.8907
15.1848
14.4788
13.7727
13.0667
12.3606
11.6544
10.9483
10.242
9.53578
8.8295
8.12319
7.41685
6.71051
6.00416
5.29779
4.59143
3.88506
3.17869
2.47231
1.76594
1.05956
0.353187
26.2146
26.0319
25.6938
25.2427
24.7118
24.1254
23.5006
22.8493
22.1799
21.4982
20.808
20.1122
19.4126
18.7105
18.0067
17.3019
16.5965
15.8907
15.1848
14.4788
13.7728
13.0667
12.3606
11.6544
10.9483
10.242
9.53578
8.8295
8.12319
7.41685
6.71051
6.00416
5.29779
4.59143
3.88506
3.17869
2.47231
1.76594
1.05956
0.353188
26.273
26.0631
25.7104
25.2514
24.7163
24.1276
23.5015
22.8496
22.1798
21.4979
20.8076
20.1118
19.4122
18.7101
18.0063
17.3015
16.5961
15.8904
15.1845
14.4786
13.7725
13.0665
12.3604
11.6543
10.9482
10.242
9.53572
8.82945
8.12315
7.41683
6.71049
6.00414
5.29779
4.59142
3.88505
3.17868
2.47231
1.76594
1.05957
0.35319
26.3237
26.074
25.7044
25.2397
24.704
24.1166
23.4924
22.8424
22.1743
21.4937
20.8045
20.1095
19.4105
18.7089
18.0055
17.301
16.5958
15.8902
15.1844
14.4784
13.7725
13.0665
12.3604
11.6543
10.9481
10.2419
9.5357
8.82943
8.12314
7.41682
6.71048
6.00414
5.29778
4.59142
3.88505
3.17868
2.47231
1.76594
1.05956
0.353189
26.4439
26.1451
25.7457
25.2633
24.7171
24.1237
23.496
22.844
22.1749
21.4937
20.8043
20.1092
19.4102
18.7086
18.0052
17.3007
16.5956
15.89
15.1842
14.4784
13.7724
13.0664
12.3604
11.6543
10.9481
10.2419
9.5357
8.82943
8.12313
7.41682
6.71048
6.00413
5.29778
4.59142
3.88505
3.17868
2.47231
1.76594
1.05956
0.35319
26.6057
26.2531
25.8174
25.3106
24.7481
24.1438
23.5091
22.8524
22.1801
21.497
20.8063
20.1104
19.4109
18.709
18.0054
17.3008
16.5955
15.89
15.1842
14.4783
13.7724
13.0664
12.3604
11.6543
10.9481
10.2419
9.53571
8.82944
8.12314
7.41682
6.71049
6.00414
5.29778
4.59142
3.88505
3.17868
2.47231
1.76594
1.05957
0.35319
26.7837
26.3786
25.9053
25.3715
24.7899
24.1722
23.5282
22.8651
22.1886
21.5025
20.8099
20.1127
19.4124
18.7099
18.0059
17.301
16.5956
15.8899
15.1841
14.4783
13.7724
13.0664
12.3604
11.6543
10.9482
10.242
9.53573
8.82946
8.12316
7.41683
6.71049
6.00414
5.29778
4.59142
3.88505
3.17868
2.47231
1.76594
1.05957
0.35319
26.9576
26.5058
25.9971
25.4369
24.8359
24.2042
23.5502
22.8801
22.1987
21.5093
20.8143
20.1156
19.4142
18.711
18.0066
17.3014
16.5958
15.89
15.1841
14.4782
13.7724
13.0664
12.3604
11.6543
10.9482
10.242
9.53577
8.82948
8.12318
7.41685
6.7105
6.00415
5.29779
4.59142
3.88506
3.17869
2.47231
1.76594
1.05957
0.35319
27.1124
26.6219
26.0828
25.4991
24.8803
24.2356
23.572
22.8951
22.2089
21.5162
20.819
20.1187
19.4162
18.7123
18.0074
17.3018
16.5959
15.89
15.1841
14.4782
13.7724
13.0665
12.3605
11.6544
10.9483
10.2421
9.5358
8.82951
8.1232
7.41686
6.71051
6.00416
5.29779
4.59143
3.88506
3.17869
2.47231
1.76594
1.05957
0.35319
27.2372
26.717
26.1541
25.5515
24.9183
24.2626
23.591
22.9083
22.2179
21.5223
20.8231
20.1214
19.4181
18.7135
18.0081
17.3022
16.5961
15.89
15.1841
14.4782
13.7724
13.0665
12.3605
11.6545
10.9483
10.2421
9.53584
8.82954
8.12322
7.41688
6.71053
6.00417
5.2978
4.59143
3.88506
3.17869
2.47232
1.76594
1.05957
0.35319
27.3243
26.7843
26.205
25.5893
24.9457
24.2823
23.6049
22.918
22.2246
21.5268
20.8262
20.1235
19.4195
18.7144
18.0086
17.3025
16.5962
15.8901
15.1841
14.4782
13.7724
13.0665
12.3606
11.6545
10.9483
10.2421
9.53587
8.82956
8.12324
7.41689
6.71054
6.00417
5.29781
4.59144
3.88506
3.17869
2.47232
1.76594
1.05957
0.35319
27.369
26.819
26.2314
25.609
24.9602
24.2927
23.6123
22.9232
22.2282
21.5293
20.8278
20.1246
19.4202
18.7149
18.0089
17.3027
16.5963
15.8901
15.1841
14.4782
13.7724
13.0665
12.3606
11.6545
10.9484
10.2422
9.53589
8.82958
8.12325
7.4169
6.71054
6.00418
5.29781
4.59144
3.88506
3.17869
2.47232
1.76594
1.05957
0.35319
27.3691
26.819
26.2314
25.609
24.9602
24.2927
23.6123
22.9232
22.2282
21.5293
20.8279
20.1247
19.4203
18.7149
18.009
17.3027
16.5963
15.8901
15.1841
14.4783
13.7724
13.0666
12.3606
11.6545
10.9484
10.2422
9.53589
8.82958
8.12325
7.4169
6.71054
6.00418
5.29781
4.59144
3.88507
3.17869
2.47232
1.76594
1.05957
0.35319
27.3243
26.7843
26.205
25.5893
24.9458
24.2823
23.605
22.9181
22.2247
21.5269
20.8262
20.1236
19.4196
18.7145
18.0087
17.3026
16.5963
15.8901
15.1842
14.4783
13.7725
13.0666
12.3606
11.6545
10.9484
10.2422
9.53589
8.82958
8.12325
7.4169
6.71054
6.00418
5.29781
4.59144
3.88507
3.17869
2.47232
1.76594
1.05957
0.35319
27.2372
26.7171
26.1541
25.5516
24.9183
24.2626
23.5911
22.9084
22.218
21.5224
20.8232
20.1216
19.4182
18.7136
18.0082
17.3023
16.5962
15.8902
15.1842
14.4783
13.7725
13.0666
12.3606
11.6545
10.9484
10.2421
9.53587
8.82957
8.12324
7.41689
6.71054
6.00417
5.29781
4.59144
3.88506
3.17869
2.47232
1.76594
1.05957
0.35319
27.1125
26.622
26.0829
25.4992
24.8804
24.2357
23.5721
22.8952
22.209
21.5163
20.8191
20.1188
19.4164
18.7125
18.0076
17.302
16.5961
15.8902
15.1843
14.4784
13.7725
13.0666
12.3606
11.6545
10.9483
10.2421
9.53584
8.82954
8.12322
7.41688
6.71053
6.00417
5.2978
4.59143
3.88506
3.17869
2.47232
1.76594
1.05957
0.353189
26.9577
26.5059
25.9972
25.437
24.836
24.2043
23.5503
22.8802
22.1988
21.5094
20.8145
20.1158
19.4145
18.7113
18.0068
17.3016
16.596
15.8902
15.1843
14.4784
13.7725
13.0666
12.3605
11.6544
10.9483
10.2421
9.53581
8.82952
8.12321
7.41687
6.71052
6.00416
5.2978
4.59143
3.88506
3.17869
2.47232
1.76594
1.05957
0.353189
26.7838
26.3787
25.9054
25.3716
24.79
24.1723
23.5283
22.8653
22.1887
21.5027
20.8101
20.1129
19.4126
18.7101
18.0062
17.3013
16.5959
15.8902
15.1843
14.4785
13.7725
13.0665
12.3605
11.6544
10.9483
10.242
9.53579
8.8295
8.12319
7.41686
6.71051
6.00416
5.29779
4.59143
3.88506
3.17869
2.47231
1.76594
1.05957
0.353189
26.6058
26.2532
25.8175
25.3107
24.7482
24.144
23.5092
22.8525
22.1803
21.4972
20.8065
20.1106
19.4112
18.7092
18.0057
17.3011
16.5958
15.8902
15.1844
14.4785
13.7726
13.0666
12.3605
11.6544
10.9482
10.242
9.53577
8.82949
8.12318
7.41685
6.71051
6.00415
5.29779
4.59143
3.88506
3.17869
2.47231
1.76594
1.05957
0.353188
26.444
26.1452
25.7458
25.2634
24.7172
24.1238
23.4962
22.8442
22.1751
21.4939
20.8045
20.1094
19.4105
18.7089
18.0055
17.301
16.5959
15.8903
15.1845
14.4786
13.7726
13.0666
12.3605
11.6544
10.9482
10.242
9.53576
8.82948
8.12317
7.41684
6.7105
6.00415
5.29779
4.59142
3.88506
3.17868
2.47231
1.76594
1.05957
0.353188
26.3239
26.0741
25.7045
25.2399
24.7041
24.1167
23.4925
22.8425
22.1745
21.4939
20.8047
20.1098
19.4108
18.7092
18.0058
17.3013
16.596
15.8904
15.1846
14.4787
13.7727
13.0666
12.3605
11.6544
10.9482
10.242
9.53576
8.82948
8.12317
7.41684
6.7105
6.00415
5.29779
4.59142
3.88506
3.17868
2.47231
1.76594
1.05956
0.353188
26.2731
26.0632
25.7105
25.2515
24.7164
24.1277
23.5016
22.8497
22.18
21.498
20.8078
20.112
19.4124
18.7103
18.0066
17.3018
16.5964
15.8907
15.1848
14.4788
13.7727
13.0667
12.3606
11.6544
10.9483
10.242
9.53578
8.82949
8.12318
7.41685
6.71051
6.00415
5.29779
4.59143
3.88506
3.17869
2.47231
1.76594
1.05956
0.353188
26.3931
26.1437
25.7642
25.2872
24.74
24.1433
23.5119
22.8564
22.1843
21.5008
20.8095
20.113
19.4129
18.7105
18.0066
17.3017
16.5962
15.8904
15.1845
14.4785
13.7725
13.0665
12.3604
11.6543
10.9482
10.242
9.53574
8.82946
8.12316
7.41683
6.7105
6.00415
5.29779
4.59142
3.88506
3.17869
2.47231
1.76594
1.05957
0.35319
26.4439
26.1451
25.7457
25.2633
24.7171
24.1237
23.496
22.844
22.1749
21.4937
20.8043
20.1092
19.4102
18.7086
18.0052
17.3007
16.5956
15.89
15.1842
14.4784
13.7724
13.0664
12.3604
11.6543
10.9481
10.2419
9.5357
8.82943
8.12313
7.41682
6.71048
6.00414
5.29778
4.59142
3.88505
3.17868
2.47231
1.76594
1.05956
0.35319
26.5645
26.2113
25.7792
25.2786
24.7227
24.1243
23.4945
22.8416
22.1724
21.4914
20.8023
20.1076
19.4089
18.7076
18.0045
17.3002
16.5952
15.8897
15.184
14.4782
13.7723
13.0663
12.3603
11.6542
10.9481
10.2419
9.53568
8.82942
8.12312
7.41681
6.71047
6.00413
5.29777
4.59141
3.88505
3.17868
2.47231
1.76594
1.05956
0.353189
26.7301
26.3179
25.8467
25.3207
24.7486
24.1401
23.5038
22.847
22.1753
21.4929
20.803
20.1078
19.4089
18.7075
18.0043
17.3
16.595
15.8895
15.1839
14.4781
13.7722
13.0663
12.3603
11.6542
10.9481
10.2419
9.53568
8.82942
8.12312
7.41681
6.71047
6.00413
5.29777
4.59141
3.88505
3.17868
2.47231
1.76594
1.05956
0.353189
26.914
26.4444
25.9329
25.3787
24.7872
24.1655
23.5203
22.8576
22.182
21.4971
20.8056
20.1093
19.4098
18.708
18.0045
17.3
16.5949
15.8894
15.1838
14.478
13.7722
13.0663
12.3603
11.6542
10.9481
10.2419
9.53569
8.82943
8.12313
7.41681
6.71048
6.00413
5.29777
4.59141
3.88505
3.17868
2.47231
1.76593
1.05956
0.353189
27.0947
26.5737
26.0243
25.4426
24.8313
24.1956
23.5406
22.8711
22.1909
21.5029
20.8093
20.1117
19.4113
18.7088
18.005
17.3002
16.5949
15.8893
15.1837
14.478
13.7722
13.0663
12.3603
11.6543
10.9481
10.242
9.53572
8.82944
8.12314
7.41682
6.71048
6.00413
5.29778
4.59141
3.88505
3.17868
2.47231
1.76593
1.05956
0.353189
27.256
26.6922
26.1102
25.504
24.8746
24.2257
23.5613
22.8851
22.2003
21.5091
20.8133
20.1143
19.413
18.7099
18.0056
17.3005
16.595
15.8893
15.1836
14.4779
13.7722
13.0663
12.3604
11.6543
10.9482
10.242
9.53575
8.82947
8.12316
7.41683
6.71049
6.00414
5.29778
4.59142
3.88505
3.17868
2.47231
1.76593
1.05956
0.353189
27.3862
26.7895
26.182
25.5561
24.9119
24.2519
23.5795
22.8976
22.2087
21.5147
20.8171
20.1168
19.4146
18.7109
18.0062
17.3007
16.595
15.8893
15.1836
14.4779
13.7722
13.0664
12.3604
11.6544
10.9482
10.242
9.53578
8.82949
8.12318
7.41685
6.7105
6.00415
5.29778
4.59142
3.88505
3.17868
2.47231
1.76593
1.05956
0.353189
27.4771
26.8584
26.2333
25.5937
24.939
24.2712
23.593
22.9069
22.215
21.519
20.8199
20.1187
19.4159
18.7117
18.0066
17.301
16.5951
15.8892
15.1835
14.4779
13.7722
13.0664
12.3604
11.6544
10.9483
10.2421
9.5358
8.82951
8.12319
7.41686
6.71051
6.00415
5.29779
4.59142
3.88505
3.17868
2.47231
1.76593
1.05956
0.353189
27.5237
26.8939
26.26
25.6134
24.9533
24.2813
23.6001
22.9119
22.2184
21.5213
20.8215
20.1198
19.4166
18.7122
18.0069
17.3011
16.5951
15.8892
15.1835
14.4779
13.7722
13.0664
12.3605
11.6544
10.9483
10.2421
9.53582
8.82952
8.1232
7.41686
6.71051
6.00415
5.29779
4.59142
3.88505
3.17868
2.47231
1.76593
1.05956
0.353188
27.5237
26.8939
26.26
25.6134
24.9533
24.2814
23.6001
22.9119
22.2185
21.5213
20.8215
20.1198
19.4166
18.7122
18.0069
17.3011
16.5951
15.8892
15.1836
14.4779
13.7722
13.0664
12.3605
11.6544
10.9483
10.2421
9.53582
8.82953
8.12321
7.41687
6.71052
6.00416
5.29779
4.59142
3.88505
3.17868
2.47231
1.76593
1.05956
0.353188
27.4771
26.8584
26.2333
25.5938
24.939
24.2712
23.593
22.907
22.2151
21.519
20.82
20.1188
19.416
18.7118
18.0067
17.301
16.5951
15.8893
15.1836
14.478
13.7723
13.0664
12.3605
11.6544
10.9483
10.2421
9.53582
8.82952
8.1232
7.41687
6.71051
6.00416
5.29779
4.59142
3.88505
3.17868
2.47231
1.76593
1.05956
0.353188
27.3862
26.7896
26.1821
25.5562
24.9119
24.252
23.5796
22.8977
22.2088
21.5148
20.8172
20.1169
19.4147
18.7111
18.0063
17.3009
16.5952
15.8894
15.1837
14.478
13.7723
13.0664
12.3605
11.6544
10.9483
10.2421
9.5358
8.82951
8.1232
7.41686
6.71051
6.00415
5.29779
4.59142
3.88505
3.17868
2.47231
1.76593
1.05956
0.353189
27.2561
26.6923
26.1103
25.5041
24.8747
24.2258
23.5614
22.8852
22.2004
21.5092
20.8135
20.1145
19.4132
18.7101
18.0058
17.3007
16.5951
15.8895
15.1838
14.4781
13.7723
13.0664
12.3604
11.6544
10.9482
10.242
9.53578
8.8295
8.12318
7.41685
6.71051
6.00415
5.29779
4.59142
3.88505
3.17868
2.47231
1.76593
1.05956
0.353189
27.0948
26.5738
26.0244
25.4427
24.8314
24.1957
23.5407
22.8712
22.191
21.503
20.8094
20.1119
19.4115
18.7091
18.0052
17.3004
16.5951
15.8896
15.1839
14.4781
13.7723
13.0664
12.3604
11.6544
10.9482
10.242
9.53576
8.82948
8.12317
7.41684
6.7105
6.00415
5.29779
4.59142
3.88505
3.17868
2.47231
1.76593
1.05956
0.353189
26.9141
26.4445
25.933
25.3788
24.7873
24.1656
23.5205
22.8578
22.1822
21.4973
20.8058
20.1096
19.41
18.7082
18.0048
17.3003
16.5951
15.8897
15.184
14.4782
13.7724
13.0664
12.3604
11.6543
10.9482
10.242
9.53575
8.82947
8.12316
7.41684
6.71049
6.00414
5.29778
4.59142
3.88505
3.17868
2.47231
1.76593
1.05956
0.353189
26.7302
26.318
25.8468
25.3208
24.7487
24.1402
23.5039
22.8471
22.1755
21.4931
20.8032
20.108
19.4092
18.7077
18.0046
17.3003
16.5952
15.8898
15.1841
14.4783
13.7724
13.0665
12.3604
11.6543
10.9482
10.242
9.53574
8.82946
8.12316
7.41683
6.71049
6.00414
5.29778
4.59142
3.88505
3.17868
2.47231
1.76594
1.05956
0.353189
26.5646
26.2114
25.7793
25.2787
24.7228
24.1245
23.4946
22.8418
22.1725
21.4916
20.8026
20.1078
19.4092
18.7079
18.0048
17.3005
16.5955
15.89
15.1843
14.4784
13.7725
13.0665
12.3605
11.6543
10.9482
10.242
9.53574
8.82946
8.12316
7.41683
6.71049
6.00414
5.29778
4.59142
3.88505
3.17868
2.47231
1.76594
1.05956
0.353189
26.444
26.1452
25.7458
25.2634
24.7172
24.1238
23.4962
22.8442
22.1751
21.4939
20.8045
20.1094
19.4105
18.7089
18.0055
17.301
16.5959
15.8903
15.1845
14.4786
13.7726
13.0666
12.3605
11.6544
10.9482
10.242
9.53576
8.82947
8.12317
7.41684
6.7105
6.00415
5.29779
4.59142
3.88505
3.17868
2.47231
1.76594
1.05956
0.353188
26.3932
26.1438
25.7643
25.2873
24.7401
24.1434
23.512
22.8566
22.1845
21.501
20.8097
20.1132
19.4132
18.7108
18.0069
17.3019
16.5965
15.8907
15.1847
14.4787
13.7727
13.0667
12.3606
11.6544
10.9483
10.242
9.53579
8.8295
8.12319
7.41686
6.71051
6.00416
5.29779
4.59143
3.88506
3.17868
2.47231
1.76594
1.05956
0.353188
26.5491
26.2552
25.8424
25.3414
24.7774
24.1689
23.5293
22.8682
22.1922
21.506
20.813
20.1153
19.4144
18.7115
18.0071
17.302
16.5963
15.8905
15.1845
14.4785
13.7725
13.0665
12.3605
11.6544
10.9482
10.242
9.53576
8.82948
8.12317
7.41685
6.7105
6.00415
5.29779
4.59143
3.88506
3.17869
2.47231
1.76594
1.05957
0.35319
26.6057
26.2531
25.8174
25.3106
24.7481
24.1438
23.5091
22.8524
22.1801
21.497
20.8063
20.1104
19.4109
18.709
18.0054
17.3008
16.5955
15.89
15.1842
14.4783
13.7724
13.0664
12.3604
11.6543
10.9481
10.2419
9.53571
8.82944
8.12314
7.41682
6.71049
6.00414
5.29778
4.59142
3.88505
3.17868
2.47231
1.76594
1.05957
0.35319
26.7301
26.3179
25.8467
25.3207
24.7486
24.1401
23.5038
22.847
22.1753
21.4929
20.803
20.1078
19.4089
18.7075
18.0043
17.3
16.595
15.8895
15.1839
14.4781
13.7722
13.0663
12.3603
11.6542
10.9481
10.2419
9.53568
8.82942
8.12312
7.41681
6.71047
6.00413
5.29777
4.59141
3.88505
3.17868
2.47231