# vtk DataFile Version 2.0
I need something to put here
ASCII

DATASET STRUCTURED_GRID
DIMENSIONS 41 21 21
POINTS 18081 float
0.000000 0.000000 0.000000
0.100000 0.000000 0.000000
0.200000 0.000000 0.000000
0.300000 0.000000 0.000000
0.400000 0.000000 0.000000
0.500000 0.000000 0.000000
0.600000 0.000000 0.000000
0.700000 0.000000 0.000000
0.800000 0.000000 0.000000
0.900000 0.000000 0.000000
1.000000 0.000000 0.000000
1.100000 0.000000 0.000000
1.200000 0.000000 0.000000
1.300000 0.000000 0.000000
1.400000 0.000000 0.000000
1.500000 0.000000 0.000000
1.600000 0.000000 0.000000
1.700000 0.000000 0.000000
1.800000 0.000000 0.000000
1.900000 0.000000 0.000000
2.000000 0.000000 0.000000
2.100000 0.000000 0.000000
2.200000 0.000000 0.000000
2.300000 0.000000 0.000000
2.400000 0.000000 0.000000
2.500000 0.000000 0.000000
2.600000 0.000000 0.000000
2.700000 0.000000 0.000000
2.800000 0.000000 0.000000
2.900000 0.000000 0.000000
3.000000 0.000000 0.000000
3.100000 0.000000 0.000000
3.200000 0.000000 0.000000
3.300000 0.000000 0.000000
3.400000 0.000000 0.000000
3.500000 0.000000 0.000000
3.600000 0.000000 0.000000
3.700000 0.000000 0.000000
3.800000 0.000000 0.000000
3.900000 0.000000 0.000000
4.000000 0.000000 0.000000
0.000000 0.100000 0.000000
0.100000 0.100000 0.000000
0.200000 0.100000 0.000000
0.300000 0.100000 0.000000
0.400000 0.100000 0.000000
0.500000 0.100000 0.000000
0.600000 0.100000 0.000000
0.700000 0.100000 0.000000
0.800000 0.100000 0.000000
0.900000 0.100000 0.000000
1.000000 0.100000 0.000000
1.100000 0.100000 0.000000
1.200000 0.100000 0.000000
1.300000 0.100000 0.000000
1.400000 0.100000 0.000000
1.500000 0.100000 0.000000
1.600000 0.100000 0.000000
1.700000 0.100000 0.000000
1.800000 0.100000 0.000000
1.900000 0.100000 0.000000
2.000000 0.100000 0.000000
2.100000 0.100000 0.000000
2.200000 0.100000 0.000000
2.300000 0.100000 0.000000
2.400000 0.100000 0.000000
2.500000 0.100000 0.000000
2.600000 0.100000 0.000000
2.700000 0.100000 0.000000
2.800000 0.100000 0.000000
2.900000 0.100000 0.000000
3.000000 0.100000 0.000000
3.100000 0.100000 0.000000
3.200000 0.100000 0.000000
3.300000 0.100000 0.000000
3.400000 0.100000 0.000000
3.500000 0.100000 0.000000
3.600000 0.100000 0.000000
3.700000 0.100000 0.000000
3.800000 0.100000 0.000000
3.900000 0.100000 0.000000
4.000000 0.100000 0.000000
0.000000 0.200000 0.000000
0.100000 0.200000 0.000000
0.200000 0.200000 0.000000
0.300000 0.200000 0.000000
0.400000 0.200000 0.000000
0.500000 0.200000 0.000000
0.600000 0.200000 0.000000
0.700000 0.200000 0.000000
0.800000 0.200000 0.000000
0.900000 0.200000 0.000000
1.000000 0.200000 0.000000
1.100000 0.200000 0.000000
1.200000 0.200000 0.000000
1.300000 0.200000 0.000000
1.400000 0.200000 0.000000
1.500000 0.200000 0.000000
1.600000 0.200000 0.000000
1.700000 0.200000 0.000000
1.800000 0.200000 0.000000
1.900000 0.200000 0.000000
2.000000 0.200000 0.000000
2.100000 0.200000 0.000000
2.200000 0.200000 0.000000
2.300000 0.200000 0.000000
2.400000 0.200000 0.000000
2.500000 0.200000 0.000000
2.600000 0.200000 0.000000
2.700000 0.200000 0.000000
2.800000 0.200000 0.000000
2.900000 0.200000 0.000000
3.000000 0.200000 0.000000
3.100000 0.200000 0.000000
3.200000 0.200000 0.000000
3.300000 0.200000 0.000000
3.400000 0.200000 0.000000
3.500000 0.200000 0.000000
3.600000 0.200000 0.000000
3.700000 0.200000 0.000000
3.800000 0.200000 0.000000
3.900000 0.200000 0.000000
4.000000 0.200000 0.000000
0.000000 0.300000 0.000000
0.100000 0.300000 0.000000
0.200000 0.300000 0.000000
0.300000 0.300000 0.000000
0.400000 0.300000 0.000000
0.500000 0.300000 0.000000
0.600000 0.300000 0.000000
0.700000 0.300000 0.000000
0.800000 0.300000 0.000000
0.900000 0.300000 0.000000
1.000000 0.300000 0.000000
1.100000 0.300000 0.000000
1.200000 0.300000 0.000000
1.300000 0.300000 0.000000
1.400000 0.300000 0.000000
1.500000 0.300000 0.000000
1.600000 0.300000 0.000000
1.700000 0.300000 0.000000
1.800000 0.300000 0.000000
1.900000 0.300000 0.000000
2.000000 0.300000 0.000000
2.100000 0.300000 0.000000
2.200000 0.300000 0.000000
2.300000 0.300000 0.000000
2.400000 0.300000 0.000000
2.500000 0.300000 0.000000
2.600000 0.300000 0.000000
2.700000 0.300000 0.000000
2.800000 0.300000 0.000000
2.900000 0.300000 0.000000
3.000000 0.300000 0.000000
3.100000 0.300000 0.000000
3.200000 0.300000 0.000000
3.300000 0.300000 0.000000
3.400000 0.300000 0.000000
3.500000 0.300000 0.000000
3.600000 0.300000 0.000000
3.700000 0.300000 0.000000
3.800000 0.300000 0.000000
3.900000 0.300000 0.000000
4.000000 0.300000 0.000000
0.000000 0.400000 0.000000
0.100000 0.400000 0.000000
0.200000 0.400000 0.000000
0.300000 0.400000 0.000000
0.400000 0.400000 0.000000
0.500000 0.400000 0.000000
0.600000 0.400000 0.000000
0.700000 0.400000 0.000000
0.800000 0.400000 0.000000
0.900000 0.400000 0.000000
1.000000 0.400000 0.000000
1.100000 0.400000 0.000000
1.200000 0.400000 0.000000
1.300000 0.400000 0.000000
1.400000 0.400000 0.000000
1.500000 0.400000 0.000000
1.600000 0.400000 0.000000
1.700000 0.400000 0.000000
1.800000 0.400000 0.000000
1.900000 0.400000 0.000000
2.000000 0.400000 0.000000
2.100000 0.400000 0.000000
2.200000 0.400000 0.000000
2.300000 0.400000 0.000000
2.400000 0.400000 0.000000
2.500000 0.400000 0.000000
2.600000 0.400000 0.000000
2.700000 0.400000 0.000000
2.800000 0.400000 0.000000
2.900000 0.400000 0.000000
3.000000 0.400000 0.000000
3.100000 0.400000 0.000000
3.200000 0.400000 0.000000
3.300000 0.400000 0.000000
3.400000 0.400000 0.000000
3.500000 0.400000 0.000000
3.600000 0.400000 0.000000
3.700000 0.400000 0.000000
3.800000 0.400000 0.000000
3.900000 0.400000 0.000000
4.000000 0.400000 0.000000
0.000000 0.500000 0.000000
0.100000 0.500000 0.000000
0.200000 0.500000 0.000000
0.300000 0.500000 0.000000
0.400000 0.500000 0.000000
0.500000 0.500000 0.000000
0.600000 0.500000 0.000000
0.700000 0.500000 0.000000
0.800000 0.500000 0.000000
0.900000 0.500000 0.000000
1.000000 0.500000 0.000000
1.100000 0.500000 0.000000
1.200000 0.500000 0.000000
1.300000 0.500000 0.000000
1.400000 0.500000 0.000000
1.500000 0.500000 0.000000
1.600000 0.500000 0.000000
1.700000 0.500000 0.000000
1.800000 0.500000 0.000000
1.900000 0.500000 0.000000
2.000000 0.500000 0.000000
2.100000 0.500000 0.000000
2.200000 0.500000 0.000000
2.300000 0.500000 0.000000
2.400000 0.500000 0.000000
2.500000 0.500000 0.000000
2.600000 0.500000 0.000000
2.700000 0.500000 0.000000
2.800000 0.500000 0.000000
2.900000 0.500000 0.000000
3.000000 0.500000 0.000000
3.100000 0.500000 0.000000
3.200000 0.500000 0.000000
3.300000 0.500000 0.000000
3.400000 0.500000 0.000000
3.500000 0.500000 0.000000
3.600000 0.500000 0.000000
3.700000 0.500000 0.000000
3.800000 0.500000 0.000000
3.900000 0.500000 0.000000
4.000000 0.500000 0.000000
0.000000 0.600000 0.000000
0.100000 0.600000 0.000000
0.200000 0.600000 0.000000
0.300000 0.600000 0.000000
0.400000 0.600000 0.000000
0.500000 0.600000 0.000000
0.600000 0.600000 0.000000
0.700000 0.600000 0.000000
0.800000 0.600000 0.000000
0.900000 0.600000 0.000000
1.000000 0.600000 0.000000
1.100000 0.600000 0.000000
1.200000 0.600000 0.000000
1.300000 0.600000 0.000000
1.400000 0.600000 0.000000
1.500000 0.600000 0.000000
1.600000 0.600000 0.000000
1.700000 0.600000 0.000000
1.800000 0.600000 0.000000
1.900000 0.600000 0.000000
2.000000 0.600000 0.000000
2.100000 0.600000 0.000000
2.200000 0.600000 0.000000
2.300000 0.600000 0.000000
2.400000 0.600000 0.000000
2.500000 0.600000 0.000000
2.600000 0.600000 0.000000
2.700000 0.600000 0.000000
2.800000 0.600000 0.000000
2.900000 0.600000 0.000000
3.000000 0.600000 0.000000
3.100000 0.600000 0.000000
3.200000 0.600000 0.000000
3.300000 0.600000 0.000000
3.400000 0.600000 0.000000
3.500000 0.600000 0.000000
3.600000 0.600000 0.000000
3.700000 0.600000 0.000000
3.800000 0.600000 0.000000
3.900000 0.600000 0.000000
4.000000 0.600000 0.000000
0.000000 0.700000 0.000000
0.100000 0.700000 0.000000
0.200000 0.700000 0.000000
0.300000 0.700000 0.000000
0.400000 0.700000 0.000000
0.500000 0.700000 0.000000
0.600000 0.700000 0.000000
0.700000 0.700000 0.000000
0.800000 0.700000 0.000000
0.900000 0.700000 0.000000
1.000000 0.700000 0.000000
1.100000 0.700000 0.000000
1.200000 0.700000 0.000000
1.300000 0.700000 0.000000
1.400000 0.700000 0.000000
1.500000 0.700000 0.000000
1.600000 0.700000 0.000000
1.700000 0.700000 0.000000
1.800000 0.700000 0.000000
1.900000 0.700000 0.000000
2.000000 0.700000 0.000000
2.100000 0.700000 0.000000
2.200000 0.700000 0.000000
2.300000 0.700000 0.000000
2.400000 0.700000 0.000000
2.500000 0.700000 0.000000
2.600000 0.700000 0.000000
2.700000 0.700000 0.000000
2.800000 0.700000 0.000000
2.900000 0.700000 0.000000
3.000000 0.700000 0.000000
3.100000 0.700000 0.000000
3.200000 0.700000 0.000000
3.300000 0.700000 0.000000
3.400000 0.700000 0.000000
3.500000 0.700000 0.000000
3.600000 0.700000 0.000000
3.700000 0.700000 0.000000
3.800000 0.700000 0.000000
3.900000 0.700000 0.000000
4.000000 0.700000 0.000000
0.000000 0.800000 0.000000
0.100000 0.800000 0.000000
0.200000 0.800000 0.000000
0.300000 0.800000 0.000000
0.400000 0.800000 0.000000
0.500000 0.800000 0.000000
0.600000 0.800000 0.000000
0.700000 0.800000 0.000000
0.800000 0.800000 0.000000
0.900000 0.800000 0.000000
1.000000 0.800000 0.000000
1.100000 0.800000 0.000000
1.200000 0.800000 0.000000
1.300000 0.800000 0.000000
1.400000 0.800000 0.000000
1.500000 0.800000 0.000000
1.600000 0.800000 0.000000
1.700000 0.800000 0.000000
1.800000 0.800000 0.000000
1.900000 0.800000 0.000000
2.000000 0.800000 0.000000
2.100000 0.800000 0.000000
2.200000 0.800000 0.000000
2.300000 0.800000 0.000000
2.400000 0.800000 0.000000
2.500000 0.800000 0.000000
2.600000 0.800000 0.000000
2.700000 0.800000 0.000000
2.800000 0.800000 0.000000
2.900000 0.800000 0.000000
3.000000 0.800000 0.000000
3.100000 0.800000 0.000000
3.200000 0.800000 0.000000
3.300000 0.800000 0.000000
3.400000 0.800000 0.000000
3.500000 0.800000 0.000000
3.600000 0.800000 0.000000
[...]
CELL_DATA 16000
SCALARS pressure float 1
LOOKUP_TABLE default
34.632
34.4552
34.1181
33.6546
33.0903
32.4414
31.716
30.9149
30.0346
29.0689
28.0121
26.8616
25.6217
24.305
22.9331
21.5344
20.141
18.7829
17.4845
16.2616
15.1212
14.0625
13.0789
12.1607
11.2967
10.476
9.68862
8.92624
8.18207
7.45083
6.72858
6.01242
5.30027
4.59072
3.88278
3.17582
2.46943
1.76341
1.05767
0.352288
34.6877
34.4853
34.1343
33.6631
33.0946
32.4437
31.7173
30.9162
30.0364
29.0714
28.0152
26.8651
25.625
24.3073
22.9339
21.5336
20.1386
18.7795
17.4807
16.2581
15.1183
14.0604
13.0777
12.1602
11.2968
10.4764
9.68925
8.92695
8.18277
7.45148
6.72914
6.01289
5.30066
4.59102
3.88302
3.176
2.46956
1.76349
1.0577
0.35224
34.8079
34.5689
34.1937
33.7072
33.1298
32.4747
31.7477
30.9485
30.0719
29.1102
28.0557
26.9043
25.6587
24.3312
22.9445
21.5294
20.1207
18.7509
17.4456
16.2208
15.0824
14.0282
13.0505
12.1383
11.2799
10.4638
9.68018
8.92061
8.17847
7.44865
6.72735
6.0118
5.30003
4.59069
3.88286
3.17594
2.46955
1.76348
1.05765
0.352142
34.971
34.6897
34.2846
33.7784
33.1897
32.5301
31.8038
31.0091
30.1389
29.1832
28.1317
26.9774
25.7211
24.3748
22.9629
21.5201
20.0857
18.6961
17.3789
16.1502
15.0144
13.9673
12.9989
12.0966
11.2475
10.4395
9.66245
8.90804
8.16978
7.44281
6.72352
6.00936
5.29854
4.58982
3.88238
3.17569
2.46942
1.7634
1.05757
0.352056
35.1557
34.8323
34.3957
33.8685
33.2682
32.6048
31.8813
31.0939
30.2336
29.287
28.2399
27.0816
25.8098
24.4361
22.9877
21.5047
20.0332
18.6155
17.2819
16.0483
14.917
13.8805
12.9258
12.0378
11.2018
10.4052
9.63748
8.8903
8.1575
7.4345
6.71804
6.00584
5.29635
4.5885
3.88163
3.17528
2.46921
1.76328
1.05749
0.352003
35.3428
34.9812
34.515
33.968
33.3571
32.6915
31.9729
31.1957
30.3482
29.4135
28.3726
27.2098
25.9191
24.5112
23.0169
21.4834
19.9659
18.5137
17.1607
15.9222
14.7975
13.7749
12.8373
11.9669
11.1471
10.3643
9.60774
8.86922
8.14289
7.42462
6.71151
6.00164
5.29372
4.58691
3.88071
3.17478
2.46895
1.76315
1.05743
0.351984
35.5153
35.1216
34.6299
34.0658
33.4465
32.7805
32.0684
31.3032
30.4705
29.5495
28.5163
27.3494
26.0385
24.5932
23.0478
21.4583
19.8901
18.4006
17.0274
15.785
14.6686
13.6617
12.7433
11.892
11.0896
10.3215
9.57671
8.84727
8.12773
7.41437
6.70474
5.99728
5.29098
4.58526
3.87974
3.17425
2.46868
1.76303
1.05738
0.351994
35.6586
35.2401
34.7284
34.1511
33.5258
32.8606
32.1557
31.4025
30.5844
29.6772
28.6522
27.4824
26.1529
24.6717
23.077
21.4331
19.816
18.2913
16.8998
15.6547
14.5472
13.5561
12.656
11.8229
11.0369
10.2824
9.54843
8.82733
8.11397
7.40509
6.69862
5.99334
5.28851
4.58376
3.87887
3.17377
2.46844
1.76293
1.05736
0.352018
35.7609
35.3256
34.8004
34.2142
33.5851
32.9214
32.2224
31.479
30.6729
29.7772
28.7594
27.5879
26.244
24.7343
23.1001
21.4123
19.7562
18.2038
16.7984
15.552
14.4522
13.4739
12.5885
11.7698
10.9964
10.2525
9.52691
8.81218
8.10355
7.39807
6.694
5.99036
5.28665
4.58263
3.87822
3.17341
2.46826
1.76286
1.05735
0.352045
35.8142
35.3705
34.8384
34.2478
33.6169
32.9541
32.2586
31.5207
30.7214
29.8323
28.8186
27.6465
26.2948
24.7694
23.1129
21.4006
19.7226
18.1549
16.7421
15.4952
14.3999
13.4289
12.5517
11.7409
10.9745
10.2364
9.51531
8.80404
8.09795
7.39431
6.69152
5.98878
5.28566
4.58204
3.87788
3.17323
2.46817
1.76282
1.05735
0.352062
35.8143
35.3705
34.8384
34.2478
33.6169
32.9541
32.2586
31.5208
30.7214
29.8323
28.8186
27.6465
26.2948
24.7694
23.1129
21.4006
19.7226
18.155
16.7422
15.4953
14.4001
13.4291
12.5519
11.7411
10.9746
10.2365
9.51539
8.80411
8.09802
7.39436
6.69156
5.98881
5.28569
4.58206
3.87789
3.17324
2.46818
1.76283
1.05735
0.352063
35.761
35.3257
34.8004
34.2143
33.5852
32.9214
32.2225
31.4791
30.673
29.7773
28.7594
27.5879
26.2439
24.7343
23.1
21.4124
19.7563
18.204
16.7987
15.5523
14.4526
13.4743
12.5889
11.7702
10.9968
10.2528
9.52716
8.8124
8.10373
7.39821
6.69411
5.99045
5.28672
4.58269
3.87826
3.17344
2.46828
1.76287
1.05736
0.352047
35.6587
35.2402
34.7285
34.1512
33.5259
32.8608
32.1558
31.4026
30.5845
29.6773
28.6523
27.4824
26.1528
24.6716
23.077
21.4332
19.8163
18.2917
16.9003
15.6553
14.5479
13.5568
12.6567
11.8236
11.0374
10.2829
9.54885
8.82768
8.11426
7.40532
6.69881
5.99348
5.28863
4.58385
3.87894
3.17382
2.46847
1.76295
1.05737
0.352021
35.5154
35.1217
34.63
34.0659
33.4466
32.7806
32.0685
31.3034
30.4706
29.5496
28.5164
27.3494
26.0385
24.5931
23.0479
21.4585
19.8904
18.4012
17.0281
15.7858
14.6694
13.6626
12.7441
11.8928
11.0904
10.3222
9.57725
8.84773
8.12811
7.41467
6.70499
5.99747
5.29113
4.58537
3.87982
3.17431
2.46872
1.76305
1.0574
0.351997
35.343
34.9814
34.5151
33.9681
33.3572
32.6917
31.973
31.1959
30.3484
29.4136
28.3727
27.2098
25.9191
24.5112
23.017
21.4836
19.9664
18.5144
17.1615
15.9232
14.7986
13.7759
12.8383
11.9678
11.148
10.3651
9.60839
8.86976
8.14335
7.42498
6.7118
6.00187
5.29389
4.58704
3.8808
3.17484
2.46899
1.76318
1.05744
0.351988
35.1558
34.8324
34.3959
33.8687
33.2684
32.605
31.8814
31.0941
30.2337
29.2871
28.24
27.0816
25.8098
24.4362
22.9879
21.505
20.0338
18.6163
17.2829
16.0494
14.9182
13.8817
12.9269
12.0388
11.2028
10.4061
9.6382
8.89091
8.158
7.4349
6.71836
6.00609
5.29654
4.58864
3.88173
3.17535
2.46926
1.76331
1.0575
0.352005
34.9711
34.6898
34.2847
33.7785
33.1899
32.5302
31.804
31.0092
30.139
29.1833
28.1318
26.9774
25.7211
24.3748
22.9631
21.5205
20.0863
18.6969
17.38
16.1513
15.0156
13.9685
13.0001
12.0977
11.2485
10.4404
9.6632
8.90867
8.17031
7.44323
6.72385
6.00962
5.29873
4.58996
3.88248
3.17576
2.46947
1.76342
1.05757
0.352057
34.8081
34.569
34.1939
33.7073
33.1299
32.4749
31.7479
30.9487
30.072
29.1103
28.0558
26.9043
25.6587
24.3313
22.9447
21.5298
20.1213
18.7518
17.4467
16.222
15.0836
14.0294
13.0517
12.1394
11.2809
10.4647
9.68094
8.92125
8.17899
7.44907
6.72768
6.01205
5.30022
4.59083
3.88296
3.176
2.46959
1.76349
1.05765
0.352141
34.6878
34.4855
34.1345
33.6633
33.0948
32.4439
31.7175
30.9164
30.0365
29.0715
28.0153
26.8652
25.6251
24.3075
22.9342
21.5341
20.1393
18.7804
17.4818
16.2592
15.1195
14.0616
13.0789
12.1613
11.2977
10.4773
9.68999
8.92757
8.18328
7.45188
6.72946
6.01313
5.30083
4.59115
3.8831
3.17605
2.46959
1.7635
1.0577
0.352237
34.6322
34.4553
34.1183
33.6547
33.0904
32.4416
31.7161
30.9151
30.0348
29.0691
28.0122
26.8617
25.6219
24.3052
22.9334
21.5349
20.1416
18.7838
17.4855
16.2627
15.1224
14.0636
13.08
12.1617
11.2976
10.4768
9.68934
8.92684
8.18255
7.45122
6.72888
6.01264
5.30044
4.59084
3.88286
3.17586
2.46945
1.76341
1.05766
0.352281
34.6877
34.4853
34.1343
33.6631
33.0946
32.4437
31.7173
30.9162
30.0363
29.0714
28.0152
26.8651
25.6249
24.3073
22.9339
21.5336
20.1386
18.7795
17.4808
16.2581
15.1183
14.0604
13.0777
12.1602
11.2968
10.4764
9.68926
8.92696
8.18277
7.45148
6.72914
6.01289
5.30066
4.59102
3.88302
3.176
2.46956
1.76349
1.0577
0.35224
34.7314
34.4906
34.1208
33.6409
33.0681
32.4144
31.6856
30.8821
30.0001
29.0339
27.9781
26.8306
25.5959
24.2864
22.9231
21.5338
20.1496
18.7997
17.5077
16.2889
15.1503
14.0914
13.106
12.185
11.3177
10.4936
9.70292
8.93758
8.19087
7.45753
6.73359
6.0161
5.30295
4.59264
3.88414
3.17678
2.47011
1.76388
1.05796
0.352315
34.8476
34.5608
34.1622
33.6648
33.0818
32.4225
31.6912
30.8872
30.006
29.0411
27.9864
26.8393
25.6035
24.2914
22.9242
21.5306
20.1426
18.7902
17.4974
16.2792
15.1423
14.0855
13.1023
12.1832
11.3173
10.4941
9.70407
8.93902
8.19237
7.45896
6.73487
6.0172
5.30385
4.59336
3.88471
3.17722
2.47044
1.76411
1.05808
0.352297
35.0138
34.6752
34.2422
33.7227
33.1266
32.4608
31.7277
30.9253
30.0476
29.0864
28.0335
26.8846
25.6418
24.3173
22.9338
21.5224
20.118
18.7535
17.4537
16.234
15.0996
14.0479
13.0712
12.1586
11.2988
10.4807
9.69473
8.93276
8.18836
7.45652
6.73348
6.01649
5.30357
4.59333
3.8848
3.17736
2.47058
1.76422
1.05814
0.35228
35.2054
34.815
34.3464
33.8035
33.1935
32.5215
31.7883
30.9899
30.1183
29.163
28.1128
26.9602
25.7055
24.3604
22.9496
21.5084
20.0771
18.6922
17.381
16.1582
15.0276
13.9842
13.0177
12.1159
11.2659
10.4563
9.67711
8.92045
8.18001
7.45103
6.73
6.01437
5.30235
4.59268
3.88451
3.17726
2.47059
1.76426
1.05817
0.352291
35.4008
34.9629
34.4608
33.8956
33.2728
32.596
31.8643
31.0721
30.2092
29.2617
28.2152
27.0581
25.788
24.4159
22.9694
21.4892
20.0227
18.6119
17.2862
16.0601
14.9348
13.9021
12.949
12.0608
11.2234
10.4245
9.65408
8.9042
8.16884
7.44356
6.72515
6.01132
5.30051
4.59162
3.88394
3.177
2.47049
1.76424
1.05819
0.352331
35.5811
35.103
34.5719
33.9875
33.3541
32.6741
31.9455
31.161
30.3082
29.3702
28.3283
27.1669
25.8799
24.4777
22.9908
21.4667
19.9609
18.5215
17.1805
15.9516
14.8328
13.8124
12.8742
12.001
11.1773
10.3901
9.62909
8.88653
8.15665
7.43536
6.71977
6.0079
5.2984
4.59039
3.88326
3.17665
2.47034
1.76421
1.05822
0.352391
35.7309
35.2214
34.6676
34.0681
33.4267
32.7451
32.0203
31.2439
30.4013
29.4728
28.4362
27.2714
25.9687
24.5375
23.0113
21.4442
19.9002
18.4336
17.0787
15.8479
14.7362
13.728
12.8041
11.9452
11.1344
10.3581
9.60592
8.87014
8.14533
7.42773
6.71475
6.00469
5.29642
4.5892
3.88259
3.17631
2.47019
1.76416
1.05824
0.352457
35.8379
35.307
34.7376
34.1278
33.4812
32.799
32.0777
31.308
30.4738
29.5534
28.5215
27.3545
26.0399
24.5857
23.0276
21.4257
19.851
18.363
16.9977
15.7661
14.6604
13.6622
12.7498
11.9021
11.1014
10.3336
9.58813
8.85756
8.13665
7.42187
6.7109
6.00222
5.29488
4.58829
3.88207
3.17603
2.47006
1.76413
1.05825
0.352513
35.8935
35.3518
34.7745
34.1596
33.5104
32.8281
32.1089
31.343
30.5136
29.5978
28.5687
27.4008
26.0797
24.6127
23.0368
21.4152
19.8233
18.3236
16.9527
15.721
14.6188
13.6262
12.7202
11.8787
11.0835
10.3203
9.57852
8.85077
8.13197
7.41872
6.70882
6.00089
5.29406
4.5878
3.88179
3.17589
2.47
1.76411
1.05826
0.352544
35.8936
35.3518
34.7745
34.1596
33.5104
32.8281
32.1089
31.343
30.5136
29.5979
28.5687
27.4008
26.0797
24.6127
23.0368
21.4152
19.8233
18.3236
16.9528
15.7211
14.6189
13.6264
12.7203
11.8788
11.0836
10.3204
9.5786
8.85084
8.13202
7.41876
6.70886
6.00092
5.29408
4.58781
3.88181
3.1759
2.47
1.76411
1.05826
0.352544
35.8379
35.307
34.7376
34.1279
33.4813
32.7991
32.0778
31.308
30.4739
29.5535
28.5215
27.3545
26.0398
24.5856
23.0276
21.4258
19.8511
18.3633
16.9981
15.7665
14.6608
13.6626
12.7502
11.9025
11.1017
10.3339
9.58837
8.85776
8.13682
7.42201
6.71101
6.00231
5.29495
4.58834
3.88211
3.17606
2.47008
1.76413
1.05825
0.352512
35.731
35.2215
34.6677
34.0682
33.4268
32.7452
32.0204
31.244
30.4014
29.4729
28.4362
27.2714
25.9687
24.5375
23.0113
21.4443
19.9004
18.434
17.0792
15.8485
14.7368
13.7287
12.8047
11.9458
11.1349
10.3586
9.6063
8.87046
8.1456
7.42794
6.71493
6.00483
5.29652
4.58928
3.88265
3.17634
2.47021
1.76417
1.05824
0.352455
35.5812
35.1031
34.572
33.9876
33.3542
32.6742
31.9456
31.1611
30.3083
29.3703
28.3284
27.1669
25.8799
24.4777
22.9909
21.467
19.9612
18.522
17.1811
15.9523
14.8336
13.8132
12.875
12.0017
11.1779
10.3907
9.6296
8.88695
8.15701
7.43565
6.72
6.00808
5.29854
4.59049
3.88333
3.1767
2.47037
1.76422
1.05822
0.352388
35.4009
34.963
34.4609
33.8957
33.273
32.5961
31.8644
31.0723
30.2093
29.2619
28.2153
27.0582
25.788
24.416
22.9695
21.4895
20.0232
18.6125
17.287
16.061
14.9357
13.9031
12.9499
12.0616
11.2241
10.4252
9.65468
8.90471
8.16927
7.44391
6.72542
6.01154
5.30067
4.59174
3.88403
3.17706
2.47052
1.76426
1.0582
0.352327
35.2056
34.8152
34.3466
33.8036
33.1937
32.5217
31.7884
30.99
30.1185
29.1631
28.1129
26.9603
25.7056
24.3605
22.9498
21.5088
20.0776
18.693
17.3819
16.1592
15.0287
13.9852
13.0188
12.1168
11.2668
10.457
9.67778
8.92102
8.18048
7.45141
6.7303
6.01461
5.30253
4.59281
3.8846
3.17732
2.47062
1.76427
1.05817
0.352287
35.0139
34.6754
34.2424
33.7229
33.1267
32.4609
31.7279
30.9255
30.0478
29.0865
28.0336
26.8847
25.6419
24.3175
22.9341
21.5228
20.1186
18.7543
17.4547
16.235
15.1007
14.0491
13.0723
12.1597
11.2997
10.4815
9.69544
8.93336
8.18885
7.45692
6.7338
6.01674
5.30376
4.59346
3.8849
3.17742
2.47062
1.76424
1.05814
0.352276
34.8478
34.561
34.1623
33.6649
33.082
32.4227
31.6914
30.8874
30.0062
29.0412
27.9865
26.8394
25.6037
24.2915
22.9245
21.5311
20.1432
18.7911
17.4983
16.2803
15.1435
14.0867
13.1034
12.1842
11.3183
10.495
9.70479
8.93963
8.19288
7.45937
6.73519
6.01744
5.30404
4.59349
3.8848
3.17727
2.47047
1.76412
1.05808
0.352292
34.7315
34.4908
34.121
33.641
33.0683
32.4146
31.6858
30.8823
30.0003
29.0341
27.9782
26.8308
25.5961
24.2866
22.9234
21.5343
20.1503
18.8005
17.5086
16.29
15.1515
14.0925
13.1072
12.1861
11.3187
10.4944
9.70363
8.93818
8.19135
7.45792
6.73389
6.01633
5.30312
4.59276
3.88422
3.17682
2.47013
1.76388
1.05795
0.352308
34.6878
34.4855
34.1345
33.6633
33.0948
32.4439
31.7175
30.9164
30.0365
29.0715
28.0153
26.8652
25.6251
24.3075
22.9342
21.534
20.1393
18.7804
17.4817
16.2592
15.1195
14.0616
13.0788
12.1612
11.2977
10.4772
9.68994
8.92752
8.18324
7.45185
6.72943
6.0131
5.30081
4.59113
3.88309
3.17604
2.46958
1.76349
1.05769
0.35223
34.8079
34.5689
34.1937
33.7072
33.1298
32.4747
31.7477
30.9485
30.0719
29.1101
28.0557
26.9042
25.6586
24.3311
22.9444
21.5294
20.1206
18.7509
17.4457
16.2208
15.0824
14.0282
13.0505
12.1383
11.2799
10.4638
9.68019
8.92062
8.17848
7.44866
6.72736
6.0118
5.30003
4.59069
3.88287
3.17594
2.46955
1.76348
1.05765
0.352142
34.8476
34.5608
34.1622
33.6648
33.0818
32.4225
31.6912
30.8872
30.006
29.0411
27.9864
26.8393
25.6035
24.2913
22.9242
21.5306
20.1426
18.7902
17.4974
16.2793
15.1423
14.0855
13.1023
12.1832
11.3173
10.4941
9.70408
8.93903
8.19238
7.45897
6.73487
6.0172
5.30385
4.59336
3.88471
3.17722
2.47044
1.76411
1.05808
0.352297
34.9596
34.6221
34.1907
33.6733
33.0784
32.412
31.6764
30.87
29.9878
29.0231
27.9697
26.8247
25.5914
24.282
22.9178
21.5274
20.143
18.7946
17.5056
16.2909
15.1564
14.1009
13.1179
12.198
11.3308
10.5059
9.71406
8.94725
8.19898
7.46417
6.73889
6.02026
5.30615
4.59506
3.88596
3.17812
2.47109
1.76456
1.05835
0.352327
35.1261
34.7319
34.2625
33.7205
33.1105
32.4359
31.697
30.8907
30.0108
29.0492
27.998
26.8525
25.6149
24.2969
22.9208
21.5177
20.1223
18.7666
17.4749
16.2612
15.1304
14.08
13.1022
12.1871
11.3238
10.5019
9.71212
8.9467
8.19929
7.46493
6.73985
6.02124
5.30706
4.59587
3.88663
3.17867
2.47152
1.76487
1.05853
0.352358
35.3223
34.8707
34.3618
33.7939
33.1682
32.4859
31.7453
30.9418
30.0673
29.1113
28.0632
26.9155
25.6677
24.3311
22.9301
21.5002
20.0814
18.7095
17.4101
16.1965
15.0713
14.0295
13.0614
12.1557
11.3005
10.4853
9.7008
8.93926
8.19463
7.46218
6.73837
6.02056
5.30687
4.59594
3.88684
3.17892
2.47176
1.76507
1.05867
0.352422
35.5247
35.0198
34.4737
33.8811
33.2409
32.5522
31.812
31.0138
30.1473
29.1995
28.156
27.005
25.743
24.38
22.9435
21.4754
20.0234
18.6288
17.3189
16.1056
14.9882
13.9581
13.0033
12.1102
11.2663
10.4604
9.68318
8.92719
8.18661
7.45705
6.73522
6.01874
5.3059
4.5955
3.88671
3.17896
2.47187
1.7652
1.05879
0.35252
35.7129
35.1622
34.5838
33.9698
33.3174
32.6243
31.8862
31.0951
30.2387
29.301
28.2635
27.1098
25.8317
24.438
22.9592
21.4455
19.9543
18.5338
17.2129
16.0009
14.8931
13.8769
12.9372
12.0586
11.2273
10.4318
9.66279
8.91305
8.17708
7.45081
6.73127
6.01634
5.30452
4.59477
3.88638
3.17886
2.47189
1.76528
1.0589
0.352639
35.8699
35.2832
34.6792
34.0483
33.3867
32.691
31.956
31.1726
30.3268
29.3999
28.3695
27.2144
25.9215
24.4971
22.9751
21.4145
19.8838
18.4381
17.1076
15.8983
14.8009
13.7989
12.874
12.0093
11.1901
10.4045
9.64332
8.8995
8.16788
7.44473
6.72737
6.01393
5.3031
4.59399
3.88599
3.1787
2.47187
1.76533
1.05898
0.352757
35.9823
35.3709
34.7492
34.1068
33.4391
32.7422
32.0103
31.2335
30.3966
29.479
28.4554
27.3002
25.9961
24.5469
22.9885
21.3882
19.8245
18.3588
17.0217
15.8157
14.7275
13.7372
12.8245
11.9708
11.1611
10.3833
9.62816
8.88893
8.1607
7.43997
6.72431
6.01202
5.30196
4.59335
3.88566
3.17856
2.47184
1.76536
1.05905
0.352852
36.0409
35.4168
34.7862
34.138
33.4673
32.77
32.0399
31.2669
30.4352
29.5231
28.5036
27.3489
26.039
24.5759
22.9963
21.3729
19.7901
18.3135
16.9732
15.7696
14.6868
13.7033
12.7973
11.9498
11.1454
10.3718
9.61992
8.88319
8.15679
7.43738
6.72264
6.01098
5.30134
4.593
3.88548
3.17849
2.47182
1.76538
1.05908
0.352904
36.0409
35.4168
34.7862
34.138
33.4673
32.77
32.0399
31.2669
30.4352
29.5231
28.5036
27.3489
26.039
24.5758
22.9963
21.3729
19.7901
18.3136
16.9733
15.7697
14.687
13.7034
12.7974
11.9499
11.1455
10.3718
9.62
8.88326
8.15685
7.43743
6.72268
6.01101
5.30136
4.59301
3.88549
3.17849
2.47183
1.76538
1.05908
0.352903
35.9824
35.3709
34.7493
34.1069
33.4391
32.7423
32.0104
31.2335
30.3967
29.479
28.4554
27.3002
25.996
24.5468
22.9885
21.3883
19.8246
18.3591
17.022
15.8161
14.7279
13.7376
12.8248
11.9712
11.1614
10.3836
9.62839
8.88912
8.16086
7.4401
6.72441
6.01211
5.30203
4.5934
3.8857
3.17859
2.47186
1.76537
1.05905
0.352849
35.87
35.2833
34.6793
34.0484
33.3868
32.6911
31.9561
31.1727
30.3269
29.4
28.3696
27.2144
25.9214
24.4971
22.9751
21.4147
19.884
18.4385
17.1081
15.8989
14.8015
13.7995
12.8746
12.0099
11.1906
10.405
9.64369
8.89981
8.16814
7.44494
6.72754
6.01407
5.3032
4.59407
3.88605
3.17875
2.4719
1.76535
1.05899
0.352753
35.7131
35.1624
34.5839
33.9699
33.3175
32.6244
31.8863
31.0952
30.2388
29.3011
28.2636
27.1099
25.8318
24.438
22.9593
21.4457
19.9547
18.5343
17.2135
16.0016
14.8938
13.8777
12.938
12.0593
11.2279
10.4324
9.66328
8.91347
8.17742
7.45109
6.73149
6.01652
5.30466
4.59488
3.88645
3.17891
2.47193
1.7653
1.0589
0.352633
35.5248
35.02
34.4739
33.8812
33.241
32.5524
31.8122
31.0139
30.1475
29.1997
28.1561
27.0051
25.743
24.3801
22.9437
21.4757
20.0238
18.6294
17.3197
16.1065
14.9891
13.9591
13.0042
12.1111
11.2671
10.4611
9.68376
8.92768
8.18702
7.45738
6.73549
6.01895
5.30606
4.59562
3.8868
3.17902
2.47191
1.76522
1.0588
0.352513
35.3224
34.8709
34.362
33.794
33.1684
32.486
31.7455
30.942
30.0675
29.1115
28.0634
26.9156
25.6678
24.3312
22.9303
21.5005
20.0819
18.7102
17.4109
16.1975
15.0724
14.0305
13.0624
12.1566
11.3014
10.4861
9.70145
8.93981
8.19508
7.46255
6.73866
6.02079
5.30705
4.59608
3.88694
3.17899
2.4718
1.76509
1.05868
0.352414
35.1262
34.7321
34.2626
33.7207
33.1107
32.4361
31.6972
30.8909
30.011
29.0494
27.9981
26.8526
25.615
24.297
22.921
21.5181
20.1229
18.7674
17.4758
16.2622
15.1315
14.0811
13.1033
12.1881
11.3247
10.5027
9.71282
8.94729
8.19977
7.46532
6.74016
6.02148
5.30725
4.596
3.88673
3.17873
2.47155
1.76489
1.05853
0.352349
34.9598
34.6223
34.1909
33.6735
33.0786
32.4122
31.6766
30.8702
29.988
29.0233
27.9699
26.8248
25.5915
24.2822
22.9181
21.5279
20.1437
18.7955
17.5066
16.292
15.1575
14.102
13.119
12.199
11.3317
10.5067
9.71477
8.94784
8.19947
7.46456
6.7392
6.02049
5.30632
4.59519
3.88604
3.17818
2.47112
1.76457
1.05835
0.352318
34.8478
34.561
34.1624
33.6649
33.082
32.4227
31.6914
30.8874
30.0061
29.0412
27.9865
26.8394
25.6036
24.2915
22.9245
21.5311
20.1433
18.7911
17.4984
16.2804
15.1435
14.0867
13.1035
12.1842
11.3183
10.495
9.70478
8.93961
8.19285
7.45934
6.73517
6.01742
5.30402
4.59348
3.88479
3.17726
2.47046
1.76411
1.05807
0.352286
34.8081
34.569
34.1939
33.7073
33.1299
32.4749
31.7479
30.9487
30.0721
29.1103
28.0558
26.9043
25.6587
24.3313
22.9447
21.5298
20.1213
18.7518
17.4467
16.222
15.0836
14.0294
13.0516
12.1393
11.2808
10.4646
9.68085
8.92117
8.17892
7.449
6.72762
6.012
5.30017
4.59079
3.88292
3.17597
2.46956
1.76347
1.05763
0.352126
34.9709
34.6897
34.2846
33.7784
33.1897
32.53
31.8038
31.009
30.1388
29.1831
28.1316
26.9772
25.7209
24.3746
22.9628
21.5201
20.0857
18.6961
17.379
16.1502
15.0145
13.9674
12.999
12.0967
11.2475
10.4395
9.66248
8.90806
8.1698
7.44282
6.72353
6.00937
5.29854
4.58982
3.88238
3.17569
2.46943
1.7634
1.05757
0.352057
35.0137
34.6752
34.2422
33.7227
33.1266
32.4607
31.7277
30.9253
30.0476
29.0863
28.0334
26.8845
25.6417
24.3173
22.9338
21.5223
20.118
18.7535
17.4538
16.234
15.0996
14.048
13.0712
12.1587
11.2988
10.4807
9.69475
8.93278
8.18837
7.45652
6.73349
6.0165
5.30357
4.59333
3.8848
3.17736
2.47058
1.76422
1.05814
0.352281
35.1261
34.7319
34.2625
33.7205
33.1105
32.4359
31.697
30.8907
30.0108
29.0491
27.9979
26.8525
25.6148
24.2968
22.9207
21.5176
20.1223
18.7666
17.4749
16.2612
15.1305
14.08
13.1022
12.1871
11.3238
10.5019
9.71214
8.94671
8.19929
7.46493
6.73985
6.02124
5.30706
4.59587
3.88663
3.17867
2.47152
1.76487
1.05853