# vtk DataFile Version 2.0
I need something to put here
ASCII

DATASET STRUCTURED_GRID
DIMENSIONS 41 21 21
POINTS 18081 float
0.000000 0.000000 0.000000
0.100000 0.000000 0.000000
0.200000 0.000000 0.000000
0.300000 0.000000 0.000000
0.400000 0.000000 0.000000
0.500000 0.000000 0.000000
0.600000 0.000000 0.000000
0.700000 0.000000 0.000000
0.800000 0.000000 0.000000
0.900000 0.000000 0.000000
1.000000 0.000000 0.000000
1.100000 0.000000 0.000000
1.200000 0.000000 0.000000
1.300000 0.000000 0.000000
1.400000 0.000000 0.000000
1.500000 0.000000 0.000000
1.600000 0.000000 0.000000
1.700000 0.000000 0.000000
1.800000 0.000000 0.000000
1.900000 0.000000 0.000000
2.000000 0.000000 0.000000
2.100000 0.000000 0.000000
2.200000 0.000000 0.000000
2.300000 0.000000 0.000000
2.400000 0.000000 0.000000
2.500000 0.000000 0.000000
2.600000 0.000000 0.000000
2.700000 0.000000 0.000000
2.800000 0.000000 0.000000
2.900000 0.000000 0.000000
3.000000 0.000000 0.000000
3.100000 0.000000 0.000000
3.200000 0.000000 0.000000
3.300000 0.000000 0.000000
3.400000 0.000000 0.000000
3.500000 0.000000 0.000000
3.600000 0.000000 0.000000
3.700000 0.000000 0.000000
3.800000 0.000000 0.000000
3.900000 0.000000 0.000000
4.000000 0.000000 0.000000
0.000000 0.100000 0.000000
0.100000 0.100000 0.000000
0.200000 0.100000 0.000000
0.300000 0.100000 0.000000
0.400000 0.100000 0.000000
0.500000 0.100000 0.000000
0.600000 0.100000 0.000000
0.700000 0.100000 0.000000
0.800000 0.100000 0.000000
0.900000 0.100000 0.000000
1.000000 0.100000 0.000000
1.100000 0.100000 0.000000
1.200000 0.100000 0.000000
1.300000 0.100000 0.000000
1.400000 0.100000 0.000000
1.500000 0.100000 0.000000
1.600000 0.100000 0.000000
1.700000 0.100000 0.000000
1.800000 0.100000 0.000000
1.900000 0.100000 0.000000
2.000000 0.100000 0.000000
2.100000 0.100000 0.000000
2.200000 0.100000 0.000000
2.300000 0.100000 0.000000
2.400000 0.100000 0.000000
2.500000 0.100000 0.000000
2.600000 0.100000 0.000000
2.700000 0.100000 0.000000
2.800000 0.100000 0.000000
2.900000 0.100000 0.000000
3.000000 0.100000 0.000000
3.100000 0.100000 0.000000
3.200000 0.100000 0.000000
3.300000 0.100000 0.000000
3.400000 0.100000 0.000000
3.500000 0.100000 0.000000
3.600000 0.100000 0.000000
3.700000 0.100000 0.000000
3.800000 0.100000 0.000000
3.900000 0.100000 0.000000
4.000000 0.100000 0.000000
0.000000 0.200000 0.000000
0.100000 0.200000 0.000000
0.200000 0.200000 0.000000
0.300000 0.200000 0.000000
0.400000 0.200000 0.000000
0.500000 0.200000 0.000000
0.600000 0.200000 0.000000
0.700000 0.200000 0.000000
0.800000 0.200000 0.000000
0.900000 0.200000 0.000000
1.000000 0.200000 0.000000
1.100000 0.200000 0.000000
1.200000 0.200000 0.000000
1.300000 0.200000 0.000000
1.400000 0.200000 0.000000
1.500000 0.200000 0.000000
1.600000 0.200000 0.000000
1.700000 0.200000 0.000000
1.800000 0.200000 0.000000
1.900000 0.200000 0.000000
2.000000 0.200000 0.000000
2.100000 0.200000 0.000000
2.200000 0.200000 0.000000
2.300000 0.200000 0.000000
2.400000 0.200000 0.000000
2.500000 0.200000 0.000000
2.600000 0.200000 0.000000
2.700000 0.200000 0.000000
2.800000 0.200000 0.000000
2.900000 0.200000 0.000000
3.000000 0.200000 0.000000
3.100000 0.200000 0.000000
3.200000 0.200000 0.000000
3.300000 0.200000 0.000000
3.400000 0.200000 0.000000
3.500000 0.200000 0.000000
3.600000 0.200000 0.000000
3.700000 0.200000 0.000000
3.800000 0.200000 0.000000
3.900000 0.200000 0.000000
4.000000 0.200000 0.000000
0.000000 0.300000 0.000000
0.100000 0.300000 0.000000
0.200000 0.300000 0.000000
0.300000 0.300000 0.000000
0.400000 0.300000 0.000000
0.500000 0.300000 0.000000
0.600000 0.300000 0.000000
0.700000 0.300000 0.000000
0.800000 0.300000 0.000000
0.900000 0.300000 0.000000
1.000000 0.300000 0.000000
1.100000 0.300000 0.000000
1.200000 0.300000 0.000000
1.300000 0.300000 0.000000
1.400000 0.300000 0.000000
1.500000 0.300000 0.000000
1.600000 0.300000 0.000000
1.700000 0.300000 0.000000
1.800000 0.300000 0.000000
1.900000 0.300000 0.000000
2.000000 0.300000 0.000000
2.100000 0.300000 0.000000
2.200000 0.300000 0.000000
2.300000 0.300000 0.000000
2.400000 0.300000 0.000000
2.500000 0.300000 0.000000
2.600000 0.300000 0.000000
2.700000 0.300000 0.000000
2.800000 0.300000 0.000000
2.900000 0.300000 0.000000
3.000000 0.300000 0.000000
3.100000 0.300000 0.000000
3.200000 0.300000 0.000000
3.300000 0.300000 0.000000
3.400000 0.300000 0.000000
3.500000 0.300000 0.000000
3.600000 0.300000 0.000000
3.700000 0.300000 0.000000
3.800000 0.300000 0.000000
3.900000 0.300000 0.000000
4.000000 0.300000 0.000000
0.000000 0.400000 0.000000
0.100000 0.400000 0.000000
0.200000 0.400000 0.000000
0.300000 0.400000 0.000000
0.400000 0.400000 0.000000
0.500000 0.400000 0.000000
0.600000 0.400000 0.000000
0.700000 0.400000 0.000000
0.800000 0.400000 0.000000
0.900000 0.400000 0.000000
1.000000 0.400000 0.000000
1.100000 0.400000 0.000000
1.200000 0.400000 0.000000
1.300000 0.400000 0.000000
1.400000 0.400000 0.000000
1.500000 0.400000 0.000000
1.600000 0.400000 0.000000
1.700000 0.400000 0.000000
1.800000 0.400000 0.000000
1.900000 0.400000 0.000000
2.000000 0.400000 0.000000
2.100000 0.400000 0.000000
2.200000 0.400000 0.000000
2.300000 0.400000 0.000000
2.400000 0.400000 0.000000
2.500000 0.400000 0.000000
2.600000 0.400000 0.000000
2.700000 0.400000 0.000000
2.800000 0.400000 0.000000
2.900000 0.400000 0.000000
3.000000 0.400000 0.000000
3.100000 0.400000 0.000000
3.200000 0.400000 0.000000
3.300000 0.400000 0.000000
3.400000 0.400000 0.000000
3.500000 0.400000 0.000000
3.600000 0.400000 0.000000
3.700000 0.400000 0.000000
3.800000 0.400000 0.000000
3.900000 0.400000 0.000000
4.000000 0.400000 0.000000
0.000000 0.500000 0.000000
0.100000 0.500000 0.000000
0.200000 0.500000 0.000000
0.300000 0.500000 0.000000
0.400000 0.500000 0.000000
0.500000 0.500000 0.000000
0.600000 0.500000 0.000000
0.700000 0.500000 0.000000
0.800000 0.500000 0.000000
0.900000 0.500000 0.000000
1.000000 0.500000 0.000000
1.100000 0.500000 0.000000
1.200000 0.500000 0.000000
1.300000 0.500000 0.000000
1.400000 0.500000 0.000000
1.500000 0.500000 0.000000
1.600000 0.500000 0.000000
1.700000 0.500000 0.000000
1.800000 0.500000 0.000000
1.900000 0.500000 0.000000
2.000000 0.500000 0.000000
2.100000 0.500000 0.000000
2.200000 0.500000 0.000000
2.300000 0.500000 0.000000
2.400000 0.500000 0.000000
2.500000 0.500000 0.000000
2.600000 0.500000 0.000000
2.700000 0.500000 0.000000
2.800000 0.500000 0.000000
2.900000 0.500000 0.000000
3.000000 0.500000 0.000000
3.100000 0.500000 0.000000
3.200000 0.500000 0.000000
3.300000 0.500000 0.000000
3.400000 0.500000 0.000000
3.500000 0.500000 0.000000
3.600000 0.500000 0.000000
3.700000 0.500000 0.000000
3.800000 0.500000 0.000000
3.900000 0.500000 0.000000
4.000000 0.500000 0.000000
0.000000 0.600000 0.000000
0.100000 0.600000 0.000000
0.200000 0.600000 0.000000
0.300000 0.600000 0.000000
0.400000 0.600000 0.000000
0.500000 0.600000 0.000000
0.600000 0.600000 0.000000
0.700000 0.600000 0.000000
0.800000 0.600000 0.000000
0.900000 0.600000 0.000000
1.000000 0.600000 0.000000
1.100000 0.600000 0.000000
1.200000 0.600000 0.000000
1.300000 0.600000 0.000000
1.400000 0.600000 0.000000
1.500000 0.600000 0.000000
1.600000 0.600000 0.000000
1.700000 0.600000 0.000000
1.800000 0.600000 0.000000
1.900000 0.600000 0.000000
2.000000 0.600000 0.000000
2.100000 0.600000 0.000000
2.200000 0.600000 0.000000
2.300000 0.600000 0.000000
2.400000 0.600000 0.000000
2.500000 0.600000 0.000000
2.600000 0.600000 0.000000
2.700000 0.600000 0.000000
2.800000 0.600000 0.000000
2.900000 0.600000 0.000000
3.000000 0.600000 0.000000
3.100000 0.600000 0.000000
3.200000 0.600000 0.000000
3.300000 0.600000 0.000000
3.400000 0.600000 0.000000
3.500000 0.600000 0.000000
3.600000 0.600000 0.000000
3.700000 0.600000 0.000000
3.800000 0.600000 0.000000
3.900000 0.600000 0.000000
4.000000 0.600000 0.000000
0.000000 0.700000 0.000000
0.100000 0.700000 0.000000
0.200000 0.700000 0.000000
0.300000 0.700000 0.000000
0.400000 0.700000 0.000000
0.500000 0.700000 0.000000
0.600000 0.700000 0.000000
0.700000 0.700000 0.000000
0.800000 0.700000 0.000000
0.900000 0.700000 0.000000
1.000000 0.700000 0.000000
1.100000 0.700000 0.000000
1.200000 0.700000 0.000000
1.300000 0.700000 0.000000
1.400000 0.700000 0.000000
1.500000 0.700000 0.000000
1.600000 0.700000 0.000000
1.700000 0.700000 0.000000
1.800000 0.700000 0.000000
1.900000 0.700000 0.000000
2.000000 0.700000 0.000000
2.100000 0.700000 0.000000
2.200000 0.700000 0.000000
2.300000 0.700000 0.000000
2.400000 0.700000 0.000000
2.500000 0.700000 0.000000
2.600000 0.700000 0.000000
2.700000 0.700000 0.000000
2.800000 0.700000 0.000000
2.900000 0.700000 0.000000
3.000000 0.700000 0.000000
3.100000 0.700000 0.000000
3.200000 0.700000 0.000000
3.300000 0.700000 0.000000
3.400000 0.700000 0.000000
3.500000 0.700000 0.000000
3.600000 0.700000 0.000000
3.700000 0.700000 0.000000
3.800000 0.700000 0.000000
3.900000 0.700000 0.000000
4.000000 0.700000 0.000000
0.000000 0.800000 0.000000
0.100000 0.800000 0.000000
0.200000 0.800000 0.000000
0.300000 0.800000 0.000000
0.400000 0.800000 0.000000
0.500000 0.800000 0.000000
0.600000 0.800000 0.000000
0.700000 0.800000 0.000000
0.800000 0.800000 0.000000
0.900000 0.800000 0.000000
1.000000 0.800000 0.000000
1.100000 0.800000 0.000000
1.200000 0.800000 0.000000
1.300000 0.800000 0.000000
1.400000 0.800000 0.000000
1.500000 0.800000 0.000000
1.600000 0.800000 0.000000
1.700000 0.800000 0.000000
1.800000 0.800000 0.000000
1.900000 0.800000 0.000000
2.000000 0.800000 0.000000
2.100000 0.800000 0.000000
2.200000 0.800000 0.000000
2.300000 0.800000 0.000000
2.400000 0.800000 0.000000
2.500000 0.800000 0.000000
2.600000 0.800000 0.000000
2.700000 0.800000 0.000000
2.800000 0.800000 0.000000
2.900000 0.800000 0.000000
3.000000 0.800000 0.000000
3.100000 0.800000 0.000000
3.200000 0.800000 0.000000
3.300000 0.800000 0.000000
3.400000 0.800000 0.000000
3.500000 0.800000 0.000000
3.600000 0.800000 0.000000
[...]
CELL_DATA 16000
SCALARS pressure float 1
LOOKUP_TABLE default
35.1659
34.9897
34.6524
34.1868
33.6176
32.9606
32.2228
31.4049
30.503
29.5112
28.4247
27.2425
25.9704
24.6225
23.221
21.7945
20.374
18.9888
17.663
16.4127
15.2457
14.1622
13.1567
12.2197
11.3404
10.5075
9.71085
8.94151
8.19228
7.45746
6.73273
6.01488
5.30164
4.59137
3.883
3.17578
2.46926
1.76319
1.05746
0.352173
35.2213
35.0197
34.6687
34.1954
33.6221
32.963
32.2243
31.4064
30.505
29.5139
28.4279
27.2459
25.9734
24.6246
23.2217
21.7936
20.3717
18.9856
17.6593
16.4092
15.2427
14.16
13.1553
12.2191
11.3404
10.5079
9.71144
8.94222
8.193
7.45813
6.73332
6.01538
5.30204
4.5917
3.88325
3.17598
2.46941
1.76328
1.0575
0.352117
35.3417
35.1038
34.7289
34.2406
33.6587
32.9957
32.2568
31.4408
30.5425
29.5543
28.4693
27.2851
26.0064
24.6474
23.2314
21.789
20.3538
18.9572
17.6244
16.3715
15.2059
14.1266
13.1266
12.1957
11.3221
10.4941
9.7014
8.93512
8.18814
7.4549
6.73124
6.0141
5.30129
4.59129
3.88305
3.1759
2.46938
1.76325
1.05743
0.352001
35.5058
35.226
34.8215
34.314
33.7214
33.0544
32.3165
31.5053
30.6132
29.6302
28.5469
27.3582
26.0675
24.689
23.2483
21.7791
20.3191
18.903
17.5578
16.3002
15.1363
14.0632
13.0723
12.1512
11.2871
10.4675
9.68184
8.92112
8.17838
7.44827
6.72686
6.01128
5.29954
4.59024
3.88246
3.17557
2.46921
1.76314
1.05733
0.351898
35.6926
35.3709
34.9353
34.4074
33.8038
33.1337
32.3992
31.5957
30.7131
29.7381
28.6573
27.4623
26.1542
24.7476
23.2708
21.7629
20.2672
18.8234
17.4611
16.1973
15.0364
13.9729
12.9951
12.0882
11.2377
10.4301
9.65429
8.90138
8.16459
7.43886
6.7206
6.00722
5.29698
4.58869
3.88155
3.17506
2.46893
1.76299
1.05722
0.351832
35.8826
35.5228
35.058
34.5108
33.8974
33.226
32.4971
31.7042
30.8341
29.8697
28.7928
27.5904
26.2609
24.8191
23.2972
21.7407
20.2008
18.723
17.3404
16.0699
14.9137
13.8627
12.9015
12.0123
11.1785
10.3854
9.62145
8.8779
8.14819
7.42768
6.71314
6.00238
5.29392
4.58681
3.88044
3.17444
2.46859
1.76281
1.05714
0.351806
36.0583
35.6665
35.1765
34.6129
33.9918
33.3209
32.5994
31.8189
30.9634
30.0113
28.9394
27.7297
26.3772
24.8969
23.3252
21.7149
20.1262
18.6117
17.2077
15.9311
14.7811
13.7446
12.8019
11.932
11.1161
10.3384
9.58715
8.85344
8.13115
7.41607
6.70541
5.99735
5.29073
4.58485
3.87928
3.17379
2.46825
1.76265
1.05707
0.351812
36.2046
35.7881
35.2784
34.7021
34.0758
33.4066
32.693
31.9249
31.0839
30.1444
29.0783
27.8626
26.4887
24.9716
23.3516
21.6892
20.0536
18.5043
17.0807
15.7992
14.6562
13.6341
12.7093
11.8578
11.0588
10.2955
9.55587
8.83119
8.11568
7.40555
6.69841
5.9928
5.28785
4.58308
3.87823
3.1732
2.46794
1.76251
1.05704
0.351836
36.3094
35.8761
35.3531
34.7683
34.1388
33.4716
32.7647
32.0068
31.1776
30.2486
29.1878
27.9679
26.5775
25.0312
23.3725
21.6682
19.9951
18.4184
16.9798
15.6953
14.5583
13.5481
12.6377
11.8007
11.0148
10.2627
9.53202
8.81427
8.10394
7.39758
6.69311
5.98936
5.28567
4.58174
3.87744
3.17275
2.46771
1.76241
1.05701
0.351863
36.3641
35.9223
35.3926
34.8035
34.1726
33.5067
32.8036
32.0515
31.229
30.306
29.2484
28.0265
26.6271
25.0646
23.3843
21.6564
19.9623
18.3704
16.9237
15.6378
14.5045
13.5009
12.5985
11.7696
10.9909
10.2449
9.51912
8.80514
8.09761
7.39328
6.69026
5.98751
5.2845
4.58102
3.87702
3.17252
2.46759
1.76236
1.05701
0.351881
36.3642
35.9224
35.3927
34.8037
34.1727
33.5068
32.8037
32.0517
31.2292
30.3062
29.2486
28.0266
26.6272
25.0647
23.3843
21.6565
19.9624
18.3705
16.9238
15.6379
14.5046
13.501
12.5986
11.7696
10.9909
10.245
9.51915
8.80516
8.09763
7.3933
6.69027
5.98752
5.28451
4.58103
3.87702
3.17252
2.46759
1.76236
1.05701
0.351882
36.3098
35.8764
35.3534
34.7686
34.1391
33.4719
32.7651
32.0072
31.178
30.249
29.1882
27.9683
26.5778
25.0314
23.3727
21.6684
19.9953
18.4186
16.98
15.6955
14.5586
13.5483
12.6378
11.8008
11.0149
10.2628
9.5321
8.81433
8.10399
7.39762
6.69314
5.98938
5.28569
4.58175
3.87745
3.17276
2.46772
1.76241
1.05702
0.351867
36.2052
35.7886
35.279
34.7027
34.0763
33.4072
32.6937
31.9256
31.0846
30.1451
29.079
27.8632
26.4892
24.972
23.3519
21.6895
20.054
18.5047
17.0811
15.7996
14.6566
13.6344
12.7096
11.8581
11.059
10.2957
9.55599
8.83129
8.11576
7.40561
6.69846
5.99283
5.28787
4.5831
3.87825
3.17321
2.46795
1.76251
1.05704
0.351842
36.059
35.6672
35.1772
34.6136
33.9926
33.3217
32.6003
31.8198
30.9643
30.0123
28.9404
27.7306
26.378
24.8976
23.3257
21.7154
20.1267
18.6122
17.2081
15.9315
14.7815
13.745
12.8022
11.9323
11.1163
10.3386
9.58731
8.85356
8.13125
7.41615
6.70547
5.99739
5.29076
4.58487
3.8793
3.1738
2.46826
1.76265
1.05708
0.35182
35.8834
35.5236
35.0588
34.5117
33.8983
33.227
32.4982
31.7053
30.8353
29.8709
28.794
27.5915
26.2619
24.82
23.298
21.7413
20.2013
18.7235
17.3408
16.0703
14.9141
13.8631
12.9018
12.0126
11.1787
10.3856
9.62162
8.87804
8.1483
7.42777
6.71321
6.00242
5.29395
4.58683
3.88046
3.17445
2.4686
1.76282
1.05714
0.351815
35.6935
35.3718
34.9363
34.4084
33.8048
33.1348
32.4004
31.597
30.7145
29.7395
28.6588
27.4637
26.1554
24.7486
23.2717
21.7636
20.2678
18.8239
17.4616
16.1977
15.0368
13.9733
12.9954
12.0885
11.2379
10.4303
9.65446
8.90152
8.1647
7.43895
6.72066
6.00727
5.29702
4.58871
3.88156
3.17508
2.46894
1.76299
1.05723
0.351841
35.5068
35.227
34.8226
34.3151
33.7225
33.0556
32.3178
31.5067
30.6146
29.6317
28.5484
27.3597
26.0689
24.6902
23.2493
21.78
20.3198
18.9036
17.5583
16.3006
15.1366
14.0636
13.0725
12.1514
11.2873
10.4677
9.682
8.92125
8.17848
7.44836
6.72692
6.01133
5.29957
4.59027
3.88247
3.17558
2.46921
1.76315
1.05733
0.351906
35.3428
35.1049
34.73
34.2417
33.6599
32.997
32.2581
31.4423
30.544
29.5558
28.4709
27.2867
26.0078
24.6486
23.2325
21.7899
20.3546
18.9578
17.6248
16.3719
15.2062
14.1269
13.1269
12.1959
11.3223
10.4943
9.70155
8.93525
8.18824
7.45498
6.7313
6.01415
5.30132
4.59131
3.88307
3.1759
2.46938
1.76325
1.05743
0.352006
35.2224
35.0208
34.6697
34.1965
33.6233
32.9642
32.2257
31.4078
30.5065
29.5155
28.4295
27.2475
25.9749
24.6259
23.2228
21.7945
20.3724
18.9861
17.6598
16.4095
15.243
14.1603
13.1555
12.2193
11.3405
10.508
9.71158
8.94233
8.19309
7.4582
6.73337
6.01542
5.30207
4.59172
3.88326
3.17598
2.46941
1.76328
1.0575
0.35212
35.167
34.9908
34.6535
34.1878
33.6188
32.9618
32.2241
31.4063
30.5045
29.5128
28.4263
27.2441
25.9719
24.6238
23.2222
21.7954
20.3747
18.9894
17.6634
16.413
15.246
14.1624
13.1569
12.2199
11.3406
10.5077
9.71097
8.94161
8.19237
7.45753
6.73278
6.01492
5.30166
4.59139
3.883
3.17578
2.46926
1.76318
1.05746
0.352172
35.2213
35.0197
34.6687
34.1954
33.6221
32.963
32.2243
31.4064
30.5049
29.5139
28.4279
27.2459
25.9734
24.6245
23.2217
21.7936
20.3717
18.9856
17.6593
16.4092
15.2427
14.1601
13.1553
12.2191
11.3404
10.5079
9.71145
8.94222
8.193
7.45813
6.73332
6.01538
5.30204
4.5917
3.88325
3.17598
2.46941
1.76328
1.0575
0.352117
35.2641
35.0244
34.6543
34.172
33.5942
32.9321
32.191
31.3706
30.4672
29.4751
28.39
27.2111
25.9444
24.6039
23.2112
21.7941
20.3828
19.0058
17.6865
16.4404
15.2755
14.192
13.1849
12.2453
11.3626
10.5262
9.72617
8.95374
8.20183
7.46477
6.73822
6.01895
5.3046
4.59351
3.88452
3.17686
2.47003
1.76372
1.0578
0.352202
35.3801
35.0947
34.6959
34.1962
33.6083
32.9407
32.1971
31.3763
30.4736
29.4828
28.3985
27.2196
25.9516
24.6082
23.2118
21.7907
20.3759
18.9966
17.6763
16.4308
15.2673
14.1858
13.1808
12.243
11.3619
10.5266
9.72721
8.95514
8.20335
7.46625
6.73956
6.02011
5.30557
4.59429
3.88514
3.17734
2.47039
1.76398
1.05793
0.352179
35.5469
35.2101
34.7772
34.2557
33.6549
32.981
32.236
31.417
30.5177
29.5299
28.4466
27.2648
25.9888
24.6328
23.2203
21.7819
20.3515
18.9602
17.6328
16.385
15.2234
14.1467
13.1478
12.2167
11.3418
10.5118
9.71677
8.94805
8.19872
7.46338
6.73789
6.01922
5.30517
4.59419
3.8852
3.17747
2.47053
1.76409
1.05799
0.352156
35.7405
35.3519
34.8836
34.339
33.7248
33.0453
32.3005
31.4856
30.5923
29.6096
28.5275
27.3403
26.051
24.6737
23.2344
21.7673
20.3108
18.8996
17.5602
16.3084
15.1495
14.0802
13.0914
12.1709
11.3061
10.485
9.69726
8.93428
8.18929
7.45711
6.73386
6.01673
5.30371
4.59339
3.88481
3.17732
2.4705
1.76411
1.05801
0.352163
35.9386
35.5025
35.0009
34.4344
33.808
33.1242
32.3815
31.5732
30.6881
29.7124
28.6321
27.4382
26.1314
24.7264
23.252
21.7474
20.257
18.8201
17.4655
16.209
15.054
13.9946
13.0186
12.1119
11.26
10.4502
9.67181
8.91615
8.17672
7.44862
6.72828
6.01318
5.30153
4.59211
3.8841
3.17697
2.47035
1.76407
1.05802
0.352203
36.1222
35.6456
35.1153
34.53
33.8934
33.2072
32.4681
31.6678
30.7927
29.8253
28.7477
27.5469
26.221
24.7851
23.2711
21.7243
20.1961
18.7309
17.36
16.0989
14.949
13.9008
12.9394
12.0478
11.2101
10.4126
9.6442
8.89645
8.16301
7.43931
6.72213
6.00922
5.29906
4.59063
3.88326
3.17652
2.47015
1.764
1.05803
0.352267
36.2751
35.767
35.214
34.614
33.97
33.2827
32.5481
31.7561
30.8911
29.9323
28.8581
27.6513
26.3076
24.8419
23.2894
21.7014
20.1364
18.6443
17.2584
15.9938
14.8494
13.8125
12.8651
11.9879
11.1636
10.3776
9.61858
8.87817
8.15028
7.43065
6.71638
6.0055
5.29673
4.58922
3.88245
3.17609
2.46994
1.76392
1.05804
0.352338
36.3846
35.8549
35.2864
34.6764
34.0276
33.3402
32.6095
31.8246
30.9678
30.0164
28.9453
27.7345
26.377
24.8877
23.3041
21.6827
20.0882
18.5749
17.1775
15.9108
14.7712
13.7436
12.8073
11.9416
11.1277
10.3506
9.59889
8.86413
8.1405
7.424
6.71196
6.00264
5.29493
4.58813
3.88182
3.17574
2.46977
1.76386
1.05804
0.352398
36.4416
35.9011
35.3247
34.7097
34.0585
33.3713
32.643
31.862
31.01
30.0627
28.9937
27.7808
26.4159
24.9134
23.3124
21.6721
20.0611
18.536
17.1326
15.8649
14.7282
13.7058
12.7758
11.9164
11.1082
10.336
9.58821
8.85653
8.13521
7.4204
6.70956
6.00109
5.29395
4.58753
3.88147
3.17555
2.46968
1.76383
1.05805
0.352433
36.4417
35.9012
35.3248
34.7098
34.0586
33.3714
32.6431
31.8621
31.0101
30.0628
28.9938
27.7809
26.416
24.9135
23.3124
21.6722
20.0612
18.5361
17.1327
15.865
14.7283
13.7059
12.7759
11.9164
11.1082
10.336
9.58824
8.85655
8.13523
7.42041
6.70957
6.00109
5.29396
4.58754
3.88147
3.17555
2.46968
1.76383
1.05805
0.352433
36.3849
35.8553
35.2867
34.6767
34.0279
33.3406
32.6099
31.825
30.9682
30.0167
28.9457
27.7348
26.3773
24.8879
23.3043
21.6829
20.0884
18.5751
17.1778
15.911
14.7714
13.7438
12.8075
11.9417
11.1278
10.3507
9.59896
8.86419
8.14055
7.42403
6.71198
6.00266
5.29494
4.58814
3.88182
3.17575
2.46977
1.76386
1.05804
0.352398
36.2756
35.7675
35.2145
34.6145
33.9705
33.2833
32.5487
31.7568
30.8917
29.9329
28.8587
27.6519
26.3081
24.8423
23.2897
21.7017
20.1368
18.6447
17.2588
15.9942
14.8497
13.8128
12.8653
11.9881
11.1637
10.3777
9.61869
8.87826
8.15035
7.43071
6.71642
6.00553
5.29675
4.58924
3.88246
3.17609
2.46994
1.76392
1.05803
0.352338
36.1229
35.6463
35.116
34.5307
33.8942
33.2079
32.4689
31.6687
30.7936
29.8262
28.7486
27.5477
26.2218
24.7857
23.2716
21.7248
20.1965
18.7313
17.3604
16.0993
14.9493
13.9011
12.9396
12.048
11.2103
10.4127
9.64433
8.89656
8.1631
7.43938
6.72218
6.00926
5.29909
4.59065
3.88328
3.17653
2.47015
1.76399
1.05802
0.352267
35.9395
35.5033
35.0017
34.4353
33.8089
33.1252
32.3825
31.5742
30.6892
29.7135
28.6333
27.4393
26.1324
24.7273
23.2527
21.748
20.2575
18.8206
17.4659
16.2094
15.0544
13.9949
13.0189
12.1121
11.2602
10.4504
9.67196
8.91628
8.17682
7.4487
6.72835
6.01323
5.30156
4.59213
3.88412
3.17697
2.47036
1.76406
1.05801
0.352204
35.7415
35.3528
34.8845
34.34
33.7258
33.0464
32.3016
31.4869
30.5936
29.611
28.5289
27.3416
26.0522
24.6748
23.2353
21.768
20.3114
18.9001
17.5606
16.3087
15.1498
14.0805
13.0916
12.1711
11.3063
10.4852
9.69742
8.93441
8.18939
7.45719
6.73392
6.01677
5.30374
4.59341
3.88482
3.17732
2.4705
1.7641
1.058
0.352164
35.548
35.2111
34.7782
34.2567
33.656
32.9822
32.2372
31.4183
30.5191
29.5314
28.4481
27.2662
25.9901
24.634
23.2213
21.7828
20.3521
18.9608
17.6333
16.3854
15.2237
14.147
13.1481
12.2169
11.342
10.512
9.71692
8.94817
8.19882
7.46345
6.73795
6.01926
5.3052
4.59421
3.88521
3.17748
2.47053
1.76408
1.05798
0.352157
35.3811
35.0958
34.697
34.1973
33.6094
32.9419
32.1984
31.3777
30.4751
29.4843
28.4001
27.2211
25.953
24.6095
23.2129
21.7915
20.3766
18.9972
17.6768
16.4311
15.2676
14.1861
13.181
12.2433
11.3621
10.5268
9.72735
8.95526
8.20344
7.46632
6.73962
6.02015
5.30559
4.59431
3.88515
3.17735
2.47039
1.76397
1.05792
0.35218
35.2652
35.0255
34.6554
34.1731
33.5954
32.9334
32.1923
31.372
30.4687
29.4767
28.3916
27.2126
25.9459
24.6051
23.2123
21.795
20.3835
19.0064
17.6869
16.4408
15.2758
14.1923
13.1851
12.2455
11.3628
10.5264
9.72629
8.95385
8.20191
7.46484
6.73827
6.01899
5.30462
4.59352
3.88453
3.17686
2.47002
1.76372
1.05779
0.352202
35.2224
35.0208
34.6697
34.1964
33.6232
32.9642
32.2256
31.4078
30.5064
29.5154
28.4295
27.2474
25.9749
24.6258
23.2228
21.7945
20.3724
18.9861
17.6598
16.4095
15.243
14.1603
13.1555
12.2193
11.3405
10.508
9.71156
8.94231
8.19308
7.45819
6.73336
6.01541
5.30206
4.59171
3.88326
3.17598
2.4694
1.76327
1.05749
0.352114
35.3417
35.1038
34.7289
34.2406
33.6587
32.9957
32.2567
31.4408
30.5425
29.5542
28.4693
27.285
26.0063
24.6473
23.2314
21.789
20.3538
18.9573
17.6244
16.3716
15.206
14.1266
13.1267
12.1958
11.3221
10.4941
9.70142
8.93514
8.18815
7.45491
6.73125
6.01411
5.3013
4.59129
3.88305
3.1759
2.46938
1.76325
1.05743
0.352001
35.38
35.0947
34.6959
34.1962
33.6083
32.9407
32.1971
31.3763
30.4736
29.4828
28.3985
27.2196
25.9515
24.6082
23.2118
21.7906
20.3758
18.9966
17.6763
16.4308
15.2673
14.1859
13.1808
12.2431
11.3619
10.5266
9.72722
8.95515
8.20335
7.46625
6.73956
6.02011
5.30557
4.59429
3.88514
3.17734
2.47039
1.76398
1.05793
0.352179
35.4912
35.1556
34.7241
34.2043
33.6043
32.9295
32.1817
31.3586
30.455
29.4645
28.3815
27.2046
25.9389
24.5984
23.2051
21.7874
20.3765
19.0013
17.6849
16.4427
15.2816
14.2015
13.1968
12.2584
11.376
10.539
9.7378
8.96392
8.21045
7.47187
6.74393
6.02345
5.30808
4.59616
3.88652
3.17835
2.47112
1.76449
1.05824
0.352214
35.658
35.2661
34.7967
34.2524
33.6376
32.9548
32.2038
31.3811
30.4798
29.492
28.4104
27.232
25.9612
24.6117
23.207
21.7773
20.3561
18.9739
17.6544
16.4127
15.2548
14.1794
13.1798
12.2463
11.368
10.5342
9.73534
8.96303
8.21055
7.47252
6.74484
6.02443
5.30902
4.597
3.88724
3.17894
2.47158
1.76482
1.05844
0.352246
35.856
35.4066
34.8979
34.328
33.6978
33.0077
32.2555
31.4358
30.5398
29.5569
28.4771
27.2946
26.0119
24.6433
23.2144
21.7594
20.3159
18.9177
17.5899
16.347
15.1937
14.1264
13.1363
12.2123
11.3425
10.5159
9.72259
8.95454
8.20513
7.46926
6.74302
6.02354
5.3087
4.59701
3.88742
3.17918
2.47183
1.76504
1.05859
0.352314
36.0612
35.5584
35.0125
34.4182
33.7739
33.0781
32.3268
31.5127
30.6247
29.6491
28.572
27.3837
26.0844
24.6886
23.2253
21.7342
20.2592
18.8386
17.499
16.2547
15.1077
14.0514
13.0743
12.1632
11.3051
10.4883
9.70294
8.94093
8.196
7.46333
6.73933
6.02135
5.3075
4.59642
3.88719
3.17917
2.47192
1.76516
1.05871
0.352421
36.2529
35.7039
35.1257
34.5103
33.8543
33.1547
32.4062
31.5997
30.7218
29.7553
28.6822
27.488
26.1697
24.7423
23.2382
21.7042
20.1921
18.7457
17.3933
16.1481
15.0091
13.9658
13.0038
12.1074
11.2625
10.4568
9.68026
8.92506
8.18519
7.45618
6.73475
6.01852
5.30584
4.59552
3.88675
3.17901
2.47191
1.76523
1.05881
0.352552
36.4133
35.8279
35.2241
34.5921
33.9273
33.2258
32.4811
31.6828
30.8155
29.859
28.791
27.5922
26.2559
24.7971
23.2514
21.6734
20.1239
18.6524
17.2883
16.0435
14.9132
13.8834
12.9362
12.0542
11.2219
10.4268
9.65861
8.90985
8.17478
7.44923
6.73024
6.0157
5.30414
4.59455
3.88625
3.17878
2.47185
1.76526
1.0589
0.352683
36.5284
35.918
35.2966
34.6532
33.9827
33.2804
32.5393
31.7481
30.8898
29.9421
28.8792
27.6778
26.3278
24.8435
23.2629
21.6475
20.0666
18.5751
17.2026
15.9592
14.8368
13.8182
12.8831
12.0125
11.1902
10.4033
9.64173
8.89799
8.16664
7.44379
6.72669
6.01346
5.30278
4.59376
3.88583
3.17859
2.47179
1.76528
1.05896
0.352788
36.5885
35.9653
35.3349
34.6858
34.0125
33.3101
32.5712
31.784
30.931
29.9884
28.9288
27.7264
26.3692
24.8706
23.2698
21.6325
20.0335
18.5308
17.1542
15.912
14.7944
13.7822
12.8539
11.9897
11.1729
10.3906
9.63253
8.89152
8.16219
7.44081
6.72475
6.01223
5.30202
4.59333
3.88559
3.17848
2.47175
1.76528
1.05899
0.352846
36.5886
35.9655
35.335
34.6859
34.0126
33.3102
32.5713
31.7841
30.9311
29.9886
28.9289
27.7265
26.3692
24.8707
23.2699
21.6325
20.0336
18.531
17.1543
15.9121
14.7945
13.7823
12.854
11.9897
11.173
10.3906
9.63256
8.89154
8.16221
7.44082
6.72476
6.01223
5.30203
4.59333
3.8856
3.17848
2.47175
1.76528
1.05899
0.352846
36.5287
35.9183
35.2969
34.6535
33.983
33.2808
32.5397
31.7485
30.8902
29.9425
28.8795
27.678
26.328
24.8436
23.2631
21.6477
20.0669
18.5754
17.203
15.9595
14.8371
13.8184
12.8833
12.0126
11.1904
10.4034
9.6418
8.89804
8.16668
7.44382
6.72672
6.01348
5.30279
4.59377
3.88584
3.17859
2.47179
1.76528
1.05896
0.352787
36.4138
35.8285
35.2247
34.5926
33.9279
33.2263
32.4817
31.6834
30.8161
29.8597
28.7916
27.5927
26.2563
24.7974
23.2518
21.6737
20.1243
18.6528
17.2887
16.0439
14.9136
13.8837
12.9364
12.0544
11.2221
10.4269
9.65871
8.90993
8.17484
7.44928
6.73028
6.01573
5.30416
4.59457
3.88626
3.17879
2.47186
1.76526
1.05889
0.352681
36.2536
35.7046
35.1264
34.511
33.855
33.1555
32.407
31.6006
30.7227
29.7563
28.6831
27.4888
26.1704
24.7429
23.2387
21.7046
20.1926
18.7461
17.3938
16.1485
15.0094
13.9662
13.004
12.1077
11.2627
10.457
9.68039
8.92516
8.18528
7.45625
6.7348
6.01856
5.30586
4.59553
3.88677
3.17901
2.47192
1.76523
1.05881
0.352549
36.0621
35.5592
35.0134
34.4191
33.7748
33.079
32.3278
31.5138
30.6259
29.6503
28.5732
27.3848
26.0854
24.6895
23.226
21.7348
20.2598
18.839
17.4994
16.2551
15.108
14.0517
13.0746
12.1635
11.3053
10.4885
9.70308
8.94105
8.19609
7.46341
6.73939
6.02139
5.30753
4.59645
3.88721
3.17918
2.47193
1.76516
1.0587
0.352418
35.857
35.4076
34.8989
34.329
33.6988
33.0087
32.2567
31.437
30.5411
29.5583
28.4785
27.2959
26.0132
24.6444
23.2153
21.7601
20.3165
18.9182
17.5903
16.3474
15.1941
14.1267
13.1366
12.2125
11.3427
10.516
9.72274
8.95465
8.20523
7.46933
6.74308
6.02358
5.30873
4.59703
3.88743
3.17919
2.47184
1.76504
1.05858
0.35231
35.6591
35.2671
34.7977
34.2535
33.6387
32.9559
32.2051
31.3824
30.4812
29.4934
28.4119
27.2335
25.9626
24.6129
23.208
21.7782
20.3568
18.9744
17.6548
16.413
15.2551
14.1797
13.1801
12.2465
11.3682
10.5344
9.73548
8.96315
8.21064
7.4726
6.7449
6.02447
5.30905
4.59703
3.88725
3.17895
2.47159
1.76483
1.05843
0.352242
35.4923
35.1567
34.7251
34.2054
33.6055
32.9308
32.183
31.36
30.4565
29.4661
28.3831
27.2061
25.9404
24.5997
23.2062
21.7883
20.3772
19.0019
17.6853
16.443
15.2819
14.2018
13.197
12.2586
11.3762
10.5392
9.73793
8.96403
8.21053
7.47194
6.74398
6.02348
5.30811
4.59618
3.88653
3.17835
2.47112
1.76449
1.05823
0.35221
35.3811
35.0958
34.697
34.1973
33.6094
32.9419
32.1984
31.3777
30.4751
29.4843
28.4001
27.2212
25.953
24.6095
23.2129
21.7916
20.3766
18.9972
17.6768
16.4311
15.2676
14.1861
13.181
12.2432
11.3621
10.5268
9.72734
8.95525
8.20343
7.46631
6.73961
6.02014
5.30559
4.5943
3.88515
3.17734
2.47039
1.76397
1.05793
0.352176
35.3428
35.1049
34.7299
34.2416
33.6598
32.9969
32.258
31.4422
30.544
29.5558
28.4709
27.2867
26.0079
24.6486
23.2325
21.7899
20.3545
18.9578
17.6248
16.3719
15.2062
14.1268
13.1268
12.1959
11.3222
10.4942
9.70152
8.93522
8.18821
7.45496
6.73128
6.01413
5.30131
4.5913
3.88305
3.17589
2.46937
1.76325
1.05742
0.351994
35.5058
35.226
34.8215
34.314
33.7214
33.0543
32.3165
31.5052
30.6131
29.6301
28.5468
27.3581
26.0674
24.6889
23.2482
21.7791
20.3191
18.9031
17.5579
16.3003
15.1364
14.0633
13.0723
12.1513
11.2871
10.4676
9.68187
8.92114
8.17839
7.44828
6.72687
6.01129
5.29954
4.59025
3.88246
3.17557
2.46921
1.76314
1.05733
0.351898
35.5469
35.2101
34.7772
34.2557
33.6548
32.981
32.236
31.4169
30.5176
29.5299
28.4465
27.2647
25.9887
24.6328
23.2203
21.7819
20.3514
18.9602
17.6328
16.3851
15.2235
14.1467
13.1479
12.2168
11.3418
10.5119
9.71679
8.94807
8.19874
7.46338
6.73789
6.01922
5.30517
4.59419
3.8852
3.17747
2.47053
1.76409
1.05799
0.352156
35.658
35.2661
34.7967
34.2524
33.6376
32.9548
32.2038
31.381
30.4798
29.4919
28.4103
27.232
25.9611
24.6117
23.2069
21.7773
20.3561
18.9739
17.6544
16.4127
15.2548
14.1795
13.1799
12.2463
11.368
10.5343
9.73535
8.96304
8.21055
7.47253
6.74485
6.02443
5.30903
4.59701
3.88724
3.17894
2.47158