# vtk DataFile Version 2.0
I need something to put here
ASCII

DATASET STRUCTURED_GRID
DIMENSIONS 41 21 21
POINTS 18081 float
0.000000 0.000000 0.000000
0.100000 0.000000 0.000000
0.200000 0.000000 0.000000
0.300000 0.000000 0.000000
0.400000 0.000000 0.000000
0.500000 0.000000 0.000000
0.600000 0.000000 0.000000
0.700000 0.000000 0.000000
0.800000 0.000000 0.000000
0.900000 0.000000 0.000000
1.000000 0.000000 0.000000
1.100000 0.000000 0.000000
1.200000 0.000000 0.000000
1.300000 0.000000 0.000000
1.400000 0.000000 0.000000
1.500000 0.000000 0.000000
1.600000 0.000000 0.000000
1.700000 0.000000 0.000000
1.800000 0.000000 0.000000
1.900000 0.000000 0.000000
2.000000 0.000000 0.000000
2.100000 0.000000 0.000000
2.200000 0.000000 0.000000
2.300000 0.000000 0.000000
2.400000 0.000000 0.000000
2.500000 0.000000 0.000000
2.600000 0.000000 0.000000
2.700000 0.000000 0.000000
2.800000 0.000000 0.000000
2.900000 0.000000 0.000000
3.000000 0.000000 0.000000
3.100000 0.000000 0.000000
3.200000 0.000000 0.000000
3.300000 0.000000 0.000000
3.400000 0.000000 0.000000
3.500000 0.000000 0.000000
3.600000 0.000000 0.000000
3.700000 0.000000 0.000000
3.800000 0.000000 0.000000
3.900000 0.000000 0.000000
4.000000 0.000000 0.000000
0.000000 0.100000 0.000000
0.100000 0.100000 0.000000
0.200000 0.100000 0.000000
0.300000 0.100000 0.000000
0.400000 0.100000 0.000000
0.500000 0.100000 0.000000
0.600000 0.100000 0.000000
0.700000 0.100000 0.000000
0.800000 0.100000 0.000000
0.900000 0.100000 0.000000
1.000000 0.100000 0.000000
1.100000 0.100000 0.000000
1.200000 0.100000 0.000000
1.300000 0.100000 0.000000
1.400000 0.100000 0.000000
1.500000 0.100000 0.000000
1.600000 0.100000 0.000000
1.700000 0.100000 0.000000
1.800000 0.100000 0.000000
1.900000 0.100000 0.000000
2.000000 0.100000 0.000000
2.100000 0.100000 0.000000
2.200000 0.100000 0.000000
2.300000 0.100000 0.000000
2.400000 0.100000 0.000000
2.500000 0.100000 0.000000
2.600000 0.100000 0.000000
2.700000 0.100000 0.000000
2.800000 0.100000 0.000000
2.900000 0.100000 0.000000
3.000000 0.100000 0.000000
3.100000 0.100000 0.000000
3.200000 0.100000 0.000000
3.300000 0.100000 0.000000
3.400000 0.100000 0.000000
3.500000 0.100000 0.000000
3.600000 0.100000 0.000000
3.700000 0.100000 0.000000
3.800000 0.100000 0.000000
3.900000 0.100000 0.000000
4.000000 0.100000 0.000000
0.000000 0.200000 0.000000
0.100000 0.200000 0.000000
0.200000 0.200000 0.000000
0.300000 0.200000 0.000000
0.400000 0.200000 0.000000
0.500000 0.200000 0.000000
0.600000 0.200000 0.000000
0.700000 0.200000 0.000000
0.800000 0.200000 0.000000
0.900000 0.200000 0.000000
1.000000 0.200000 0.000000
1.100000 0.200000 0.000000
1.200000 0.200000 0.000000
1.300000 0.200000 0.000000
1.400000 0.200000 0.000000
1.500000 0.200000 0.000000
1.600000 0.200000 0.000000
1.700000 0.200000 0.000000
1.800000 0.200000 0.000000
1.900000 0.200000 0.000000
2.000000 0.200000 0.000000
2.100000 0.200000 0.000000
2.200000 0.200000 0.000000
2.300000 0.200000 0.000000
2.400000 0.200000 0.000000
2.500000 0.200000 0.000000
2.600000 0.200000 0.000000
2.700000 0.200000 0.000000
2.800000 0.200000 0.000000
2.900000 0.200000 0.000000
3.000000 0.200000 0.000000
3.100000 0.200000 0.000000
3.200000 0.200000 0.000000
3.300000 0.200000 0.000000
3.400000 0.200000 0.000000
3.500000 0.200000 0.000000
3.600000 0.200000 0.000000
3.700000 0.200000 0.000000
3.800000 0.200000 0.000000
3.900000 0.200000 0.000000
4.000000 0.200000 0.000000
0.000000 0.300000 0.000000
0.100000 0.300000 0.000000
0.200000 0.300000 0.000000
0.300000 0.300000 0.000000
0.400000 0.300000 0.000000
0.500000 0.300000 0.000000
0.600000 0.300000 0.000000
0.700000 0.300000 0.000000
0.800000 0.300000 0.000000
0.900000 0.300000 0.000000
1.000000 0.300000 0.000000
1.100000 0.300000 0.000000
1.200000 0.300000 0.000000
1.300000 0.300000 0.000000
1.400000 0.300000 0.000000
1.500000 0.300000 0.000000
1.600000 0.300000 0.000000
1.700000 0.300000 0.000000
1.800000 0.300000 0.000000
1.900000 0.300000 0.000000
2.000000 0.300000 0.000000
2.100000 0.300000 0.000000
2.200000 0.300000 0.000000
2.300000 0.300000 0.000000
2.400000 0.300000 0.000000
2.500000 0.300000 0.000000
2.600000 0.300000 0.000000
2.700000 0.300000 0.000000
2.800000 0.300000 0.000000
2.900000 0.300000 0.000000
3.000000 0.300000 0.000000
3.100000 0.300000 0.000000
3.200000 0.300000 0.000000
3.300000 0.300000 0.000000
3.400000 0.300000 0.000000
3.500000 0.300000 0.000000
3.600000 0.300000 0.000000
3.700000 0.300000 0.000000
3.800000 0.300000 0.000000
3.900000 0.300000 0.000000
4.000000 0.300000 0.000000
0.000000 0.400000 0.000000
0.100000 0.400000 0.000000
0.200000 0.400000 0.000000
0.300000 0.400000 0.000000
0.400000 0.400000 0.000000
0.500000 0.400000 0.000000
0.600000 0.400000 0.000000
0.700000 0.400000 0.000000
0.800000 0.400000 0.000000
0.900000 0.400000 0.000000
1.000000 0.400000 0.000000
1.100000 0.400000 0.000000
1.200000 0.400000 0.000000
1.300000 0.400000 0.000000
1.400000 0.400000 0.000000
1.500000 0.400000 0.000000
1.600000 0.400000 0.000000
1.700000 0.400000 0.000000
1.800000 0.400000 0.000000
1.900000 0.400000 0.000000
2.000000 0.400000 0.000000
2.100000 0.400000 0.000000
2.200000 0.400000 0.000000
2.300000 0.400000 0.000000
2.400000 0.400000 0.000000
2.500000 0.400000 0.000000
2.600000 0.400000 0.000000
2.700000 0.400000 0.000000
2.800000 0.400000 0.000000
2.900000 0.400000 0.000000
3.000000 0.400000 0.000000
3.100000 0.400000 0.000000
3.200000 0.400000 0.000000
3.300000 0.400000 0.000000
3.400000 0.400000 0.000000
3.500000 0.400000 0.000000
3.600000 0.400000 0.000000
3.700000 0.400000 0.000000
3.800000 0.400000 0.000000
3.900000 0.400000 0.000000
4.000000 0.400000 0.000000
0.000000 0.500000 0.000000
0.100000 0.500000 0.000000
0.200000 0.500000 0.000000
0.300000 0.500000 0.000000
0.400000 0.500000 0.000000
0.500000 0.500000 0.000000
0.600000 0.500000 0.000000
0.700000 0.500000 0.000000
0.800000 0.500000 0.000000
0.900000 0.500000 0.000000
1.000000 0.500000 0.000000
1.100000 0.500000 0.000000
1.200000 0.500000 0.000000
1.300000 0.500000 0.000000
1.400000 0.500000 0.000000
1.500000 0.500000 0.000000
1.600000 0.500000 0.000000
1.700000 0.500000 0.000000
1.800000 0.500000 0.000000
1.900000 0.500000 0.000000
2.000000 0.500000 0.000000
2.100000 0.500000 0.000000
2.200000 0.500000 0.000000
2.300000 0.500000 0.000000
2.400000 0.500000 0.000000
2.500000 0.500000 0.000000
2.600000 0.500000 0.000000
2.700000 0.500000 0.000000
2.800000 0.500000 0.000000
2.900000 0.500000 0.000000
3.000000 0.500000 0.000000
3.100000 0.500000 0.000000
3.200000 0.500000 0.000000
3.300000 0.500000 0.000000
3.400000 0.500000 0.000000
3.500000 0.500000 0.000000
3.600000 0.500000 0.000000
3.700000 0.500000 0.000000
3.800000 0.500000 0.000000
3.900000 0.500000 0.000000
4.000000 0.500000 0.000000
0.000000 0.600000 0.000000
0.100000 0.600000 0.000000
0.200000 0.600000 0.000000
0.300000 0.600000 0.000000
0.400000 0.600000 0.000000
0.500000 0.600000 0.000000
0.600000 0.600000 0.000000
0.700000 0.600000 0.000000
0.800000 0.600000 0.000000
0.900000 0.600000 0.000000
1.000000 0.600000 0.000000
1.100000 0.600000 0.000000
1.200000 0.600000 0.000000
1.300000 0.600000 0.000000
1.400000 0.600000 0.000000
1.500000 0.600000 0.000000
1.600000 0.600000 0.000000
1.700000 0.600000 0.000000
1.800000 0.600000 0.000000
1.900000 0.600000 0.000000
2.000000 0.600000 0.000000
2.100000 0.600000 0.000000
2.200000 0.600000 0.000000
2.300000 0.600000 0.000000
2.400000 0.600000 0.000000
2.500000 0.600000 0.000000
2.600000 0.600000 0.000000
2.700000 0.600000 0.000000
2.800000 0.600000 0.000000
2.900000 0.600000 0.000000
3.000000 0.600000 0.000000
3.100000 0.600000 0.000000
3.200000 0.600000 0.000000
3.300000 0.600000 0.000000
3.400000 0.600000 0.000000
3.500000 0.600000 0.000000
3.600000 0.600000 0.000000
3.700000 0.600000 0.000000
3.800000 0.600000 0.000000
3.900000 0.600000 0.000000
4.000000 0.600000 0.000000
0.000000 0.700000 0.000000
0.100000 0.700000 0.000000
0.200000 0.700000 0.000000
0.300000 0.700000 0.000000
0.400000 0.700000 0.000000
0.500000 0.700000 0.000000
0.600000 0.700000 0.000000
0.700000 0.700000 0.000000
0.800000 0.700000 0.000000
0.900000 0.700000 0.000000
1.000000 0.700000 0.000000
1.100000 0.700000 0.000000
1.200000 0.700000 0.000000
1.300000 0.700000 0.000000
1.400000 0.700000 0.000000
1.500000 0.700000 0.000000
1.600000 0.700000 0.000000
1.700000 0.700000 0.000000
1.800000 0.700000 0.000000
1.900000 0.700000 0.000000
2.000000 0.700000 0.000000
2.100000 0.700000 0.000000
2.200000 0.700000 0.000000
2.300000 0.700000 0.000000
2.400000 0.700000 0.000000
2.500000 0.700000 0.000000
2.600000 0.700000 0.000000
2.700000 0.700000 0.000000
2.800000 0.700000 0.000000
2.900000 0.700000 0.000000
3.000000 0.700000 0.000000
3.100000 0.700000 0.000000
3.200000 0.700000 0.000000
3.300000 0.700000 0.000000
3.400000 0.700000 0.000000
3.500000 0.700000 0.000000
3.600000 0.700000 0.000000
3.700000 0.700000 0.000000
3.800000 0.700000 0.000000
3.900000 0.700000 0.000000
4.000000 0.700000 0.000000
0.000000 0.800000 0.000000
0.100000 0.800000 0.000000
0.200000 0.800000 0.000000
0.300000 0.800000 0.000000
0.400000 0.800000 0.000000
0.500000 0.800000 0.000000
0.600000 0.800000 0.000000
0.700000 0.800000 0.000000
0.800000 0.800000 0.000000
0.900000 0.800000 0.000000
1.000000 0.800000 0.000000
1.100000 0.800000 0.000000
1.200000 0.800000 0.000000
1.300000 0.800000 0.000000
1.400000 0.800000 0.000000
1.500000 0.800000 0.000000
1.600000 0.800000 0.000000
1.700000 0.800000 0.000000
1.800000 0.800000 0.000000
1.900000 0.800000 0.000000
2.000000 0.800000 0.000000
2.100000 0.800000 0.000000
2.200000 0.800000 0.000000
2.300000 0.800000 0.000000
2.400000 0.800000 0.000000
2.500000 0.800000 0.000000
2.600000 0.800000 0.000000
2.700000 0.800000 0.000000
2.800000 0.800000 0.000000
2.900000 0.800000 0.000000
3.000000 0.800000 0.000000
3.100000 0.800000 0.000000
3.200000 0.800000 0.000000
3.300000 0.800000 0.000000
3.400000 0.800000 0.000000
3.500000 0.800000 0.000000
3.600000 0.800000 0.000000
[...]
CELL_DATA 16000
SCALARS pressure float 1
LOOKUP_TABLE default
34.6264
34.4496
34.1126
33.649
33.0847
32.4358
31.7103
30.9092
30.0289
29.0632
28.0064
26.856
25.6163
24.2998
22.9281
21.5299
20.1369
18.7793
17.4815
16.2591
15.1192
14.0609
13.0777
12.1598
11.2961
10.4756
9.68833
8.92605
8.18195
7.45076
6.72854
6.01239
5.30026
4.59072
3.88278
3.17582
2.46944
1.76341
1.05767
0.352289
34.6821
34.4797
34.1288
33.6575
33.089
32.4381
31.7117
30.9105
30.0307
29.0657
28.0095
26.8595
25.6195
24.3021
22.929
21.529
20.1345
18.7759
17.4777
16.2556
15.1163
14.0589
13.0765
12.1593
11.2962
10.476
9.68896
8.92676
8.18265
7.4514
6.7291
6.01286
5.30064
4.59102
3.88302
3.176
2.46957
1.7635
1.0577
0.352242
34.8023
34.5633
34.1881
33.7016
33.1242
32.4691
31.7421
30.9428
30.0662
29.1045
28.05
26.8987
25.6531
24.3259
22.9395
21.5248
20.1165
18.7473
17.4426
16.2183
15.0804
14.0267
13.0493
12.1375
11.2793
10.4634
9.6799
8.92043
8.17836
7.44858
6.72731
6.01177
5.30002
4.59069
3.88286
3.17595
2.46955
1.76348
1.05765
0.352143
34.9654
34.6841
34.279
33.7728
33.1841
32.5244
31.7982
31.0034
30.1332
29.1775
28.126
26.9717
25.7155
24.3694
22.9578
21.5155
20.0815
18.6925
17.3759
16.1477
15.0125
13.9658
12.9978
12.0959
11.2469
10.4391
9.6622
8.90788
8.16968
7.44274
6.72349
6.00934
5.29853
4.58981
3.88238
3.17569
2.46943
1.7634
1.05757
0.352057
35.1501
34.8267
34.3902
33.863
33.2626
32.5992
31.8756
31.0883
30.2279
29.2812
28.2342
27.0758
25.8041
24.4306
22.9825
21.4999
20.029
18.6119
17.2789
16.0459
14.9152
13.8792
12.9248
12.0371
11.2014
10.4049
9.63727
8.89017
8.15742
7.43445
6.71801
6.00583
5.29634
4.5885
3.88163
3.17528
2.46921
1.76328
1.05749
0.352003
35.3373
34.9757
34.5094
33.9624
33.3515
32.6859
31.9672
31.1901
30.3425
29.4077
28.3668
27.204
25.9133
24.5056
23.0116
21.4785
19.9616
18.51
17.1577
15.9199
14.7958
13.7736
12.8364
11.9663
11.1467
10.3641
9.60758
8.86912
8.14284
7.42459
6.7115
6.00163
5.29372
4.58692
3.88071
3.17478
2.46895
1.76315
1.05743
0.351984
35.5098
35.1161
34.6243
34.0602
33.4409
32.7749
32.0628
31.2975
30.4647
29.5437
28.5104
27.3435
26.0326
24.5874
23.0424
21.4533
19.8857
18.3969
17.0245
15.7827
14.6669
13.6606
12.7425
11.8915
11.0893
10.3213
9.5766
8.84721
8.1277
7.41435
6.70474
5.99728
5.29099
4.58526
3.87975
3.17425
2.46868
1.76303
1.05738
0.351992
35.653
35.2345
34.7229
34.1456
33.5202
32.8551
32.15
31.3968
30.5786
29.6714
28.6463
27.4764
26.1469
24.6658
23.0715
21.428
19.8116
18.2876
16.8969
15.6525
14.5456
13.555
12.6553
11.8225
11.0366
10.2823
9.54837
8.8273
8.11397
7.40509
6.69863
5.99335
5.28852
4.58377
3.87888
3.17377
2.46844
1.76293
1.05736
0.352015
35.7554
35.3201
34.7949
34.2087
33.5796
32.9158
32.2168
31.4733
30.6671
29.7714
28.7534
27.5819
26.2379
24.7284
23.0944
21.4072
19.7517
18.2
16.7955
15.5498
14.4507
13.4729
12.5879
11.7694
10.9962
10.2524
9.52687
8.81218
8.10356
7.39808
6.69401
5.99038
5.28667
4.58264
3.87823
3.17342
2.46826
1.76286
1.05735
0.35204
35.8087
35.365
34.8329
34.2423
33.6114
32.9485
32.253
31.5151
30.7157
29.8264
28.8126
27.6404
26.2887
24.7634
23.1072
21.3954
19.7181
18.1511
16.7392
15.4931
14.3985
13.428
12.5512
11.7406
10.9743
10.2363
9.51529
8.80404
8.09797
7.39433
6.69154
5.98879
5.28568
4.58205
3.87788
3.17323
2.46817
1.76282
1.05735
0.352055
35.8088
35.365
34.8329
34.2423
33.6114
32.9486
32.253
31.5151
30.7157
29.8264
28.8127
27.6405
26.2887
24.7634
23.1072
21.3954
19.7181
18.1512
16.7393
15.4932
14.3986
13.4281
12.5513
11.7407
10.9745
10.2364
9.51537
8.80412
8.09803
7.39437
6.69158
5.98882
5.2857
4.58206
3.87789
3.17324
2.46818
1.76282
1.05735
0.352054
35.7555
35.3202
34.795
34.2088
33.5797
32.9159
32.2169
31.4734
30.6673
29.7714
28.7535
27.5819
26.2379
24.7284
23.0944
21.4072
19.7519
18.2003
16.7958
15.5502
14.4511
13.4734
12.5883
11.7698
10.9966
10.2527
9.52712
8.81239
8.10373
7.39822
6.69412
5.99046
5.28673
4.58269
3.87826
3.17344
2.46828
1.76287
1.05735
0.352036
35.6532
35.2347
34.723
34.1457
33.5204
32.8552
32.1502
31.397
30.5788
29.6716
28.6464
27.4765
26.1469
24.6658
23.0715
21.4281
19.8118
18.288
16.8974
15.6531
14.5463
13.5557
12.656
11.8231
11.0372
10.2827
9.54877
8.82764
8.11425
7.40532
6.69881
5.99349
5.28863
4.58385
3.87894
3.17381
2.46847
1.76294
1.05736
0.35201
35.51
35.1162
34.6245
34.0604
33.4411
32.7751
32.063
31.2978
30.465
29.5439
28.5105
27.3436
26.0327
24.5875
23.0425
21.4535
19.8861
18.3975
17.0252
15.7835
14.6678
13.6615
12.7433
11.8923
11.09
10.322
9.57713
8.84766
8.12807
7.41465
6.70498
5.99747
5.29113
4.58537
3.87982
3.1743
2.46871
1.76305
1.05739
0.351985
35.3375
34.9759
34.5097
33.9626
33.3517
32.6862
31.9675
31.1903
30.3428
29.4079
28.367
27.2041
25.9134
24.5057
23.0118
21.4788
19.9621
18.5107
17.1586
15.9209
14.7968
13.7747
12.8375
11.9672
11.1476
10.3648
9.60821
8.86965
8.14328
7.42494
6.71178
6.00185
5.29388
4.58704
3.8808
3.17484
2.46899
1.76317
1.05743
0.351975
35.1503
34.827
34.3904
33.8632
33.2629
32.5995
31.8759
31.0885
30.2281
29.2815
28.2344
27.076
25.8043
24.4308
22.9828
21.5003
20.0296
18.6127
17.2799
16.047
14.9163
13.8803
12.9259
12.0381
11.2023
10.4057
9.63797
8.89076
8.1579
7.43484
6.71832
6.00607
5.29652
4.58863
3.88172
3.17535
2.46925
1.7633
1.05749
0.351993
34.9656
34.6843
34.2793
33.7731
33.1844
32.5247
31.7984
31.0037
30.1334
29.1777
28.1262
26.9719
25.7157
24.3696
22.9582
21.516
20.0822
18.6934
17.377
16.1489
15.0137
13.9671
12.999
12.0969
11.2479
10.44
9.66294
8.90849
8.17019
7.44315
6.72381
6.00959
5.29871
4.58995
3.88247
3.17575
2.46946
1.76342
1.05757
0.352047
34.8026
34.5635
34.1884
33.7018
33.1244
32.4693
31.7424
30.9431
30.0665
29.1047
28.0502
26.8989
25.6534
24.3261
22.9399
21.5253
20.1173
18.7482
17.4437
16.2195
15.0816
14.0279
13.0505
12.1386
11.2803
10.4643
9.68065
8.92105
8.17886
7.44899
6.72763
6.01202
5.3002
4.59082
3.88295
3.176
2.46959
1.76349
1.05765
0.352133
34.6824
34.48
34.129
33.6578
33.0893
32.4384
31.712
30.9108
30.0309
29.066
28.0098
26.8597
25.6197
24.3024
22.9294
21.5296
20.1353
18.7769
17.4788
16.2568
15.1176
14.0601
13.0777
12.1604
11.2971
10.4768
9.68968
8.92736
8.18314
7.45179
6.7294
6.01309
5.30081
4.59114
3.8831
3.17605
2.46959
1.7635
1.0577
0.352232
34.6267
34.4498
34.1128
33.6492
33.0849
32.4361
31.7106
30.9095
30.0292
29.0635
28.0067
26.8563
25.6165
24.3001
22.9285
21.5304
20.1376
18.7802
17.4825
16.2603
15.1204
14.0621
13.0788
12.1609
11.297
10.4764
9.68903
8.92663
8.18242
7.45113
6.72883
6.01261
5.30042
4.59083
3.88285
3.17586
2.46946
1.76341
1.05766
0.352281
34.6821
34.4797
34.1288
33.6575
33.089
32.4381
31.7117
30.9105
30.0307
29.0657
28.0095
26.8595
25.6195
24.3021
22.9289
21.529
20.1345
18.7759
17.4777
16.2556
15.1164
14.0589
13.0765
12.1594
11.2962
10.476
9.68897
8.92676
8.18265
7.4514
6.7291
6.01286
5.30064
4.59102
3.88302
3.176
2.46957
1.7635
1.0577
0.352242
34.7258
34.485
34.1152
33.6353
33.0625
32.4088
31.68
30.8765
29.9945
29.0282
27.9724
26.8251
25.5905
24.2812
22.9182
21.5293
20.1455
18.7961
17.5046
16.2864
15.1483
14.0898
13.1049
12.1842
11.3171
10.4931
9.70261
8.93737
8.19073
7.45744
6.73354
6.01607
5.30293
4.59263
3.88414
3.17678
2.47011
1.76388
1.05796
0.352316
34.842
34.5553
34.1566
33.6592
33.0762
32.4169
31.6856
30.8816
30.0003
29.0354
27.9808
26.8338
25.5981
24.2861
22.9193
21.526
20.1385
18.7867
17.4943
16.2768
15.1403
14.084
13.1011
12.1823
11.3167
10.4937
9.70377
8.93882
8.19224
7.45888
6.73482
6.01717
5.30384
4.59336
3.88471
3.17722
2.47044
1.76411
1.05808
0.352298
35.0082
34.6696
34.2366
33.7171
33.121
32.4551
31.7221
30.9197
30.0419
29.0807
28.0278
26.8789
25.6363
24.3121
22.9289
21.5178
20.1139
18.7499
17.4507
16.2315
15.0976
14.0464
13.0701
12.1578
11.2982
10.4803
9.69444
8.93257
8.18823
7.45644
6.73343
6.01646
5.30356
4.59332
3.8848
3.17736
2.47059
1.76423
1.05814
0.352282
35.1998
34.8094
34.3408
33.7979
33.1879
32.5159
31.7826
30.9842
30.1127
29.1572
28.107
26.9545
25.6999
24.355
22.9446
21.5038
20.0729
18.6887
17.378
16.1558
15.0257
13.9827
13.0167
12.1151
11.2653
10.4559
9.67685
8.92028
8.1799
7.45096
6.72996
6.01435
5.30234
4.59268
3.88451
3.17726
2.47059
1.76426
1.05818
0.352293
35.3952
34.9573
34.4552
33.89
33.2673
32.5904
31.8587
31.0665
30.2035
29.256
28.2094
27.0524
25.7823
24.4104
22.9642
21.4845
20.0185
18.6083
17.2832
16.0578
14.933
13.9008
12.948
12.0601
11.2229
10.4242
9.65386
8.90406
8.16875
7.44351
6.72512
6.01131
5.3005
4.59162
3.88395
3.177
2.47049
1.76425
1.0582
0.352333
35.5756
35.0974
34.5664
33.9819
33.3485
32.6685
31.9398
31.1553
30.3025
29.3644
28.3225
27.1611
25.8742
24.4722
22.9856
21.4619
19.9566
18.5178
17.1775
15.9492
14.831
13.8112
12.8733
12.0004
11.1769
10.3898
9.62891
8.88641
8.15658
7.43532
6.71975
6.00789
5.2984
4.59039
3.88326
3.17666
2.47035
1.76422
1.05822
0.352394
35.7253
35.2159
34.6621
34.0626
33.4211
32.7395
32.0147
31.2382
30.3955
29.4671
28.4303
27.2655
25.9629
24.5319
23.006
21.4393
19.8959
18.4299
17.0758
15.8457
14.7345
13.7268
12.8033
11.9447
11.1341
10.3579
9.60578
8.87005
8.14528
7.4277
6.71474
6.00469
5.29642
4.58921
3.8826
3.17632
2.4702
1.76417
1.05825
0.35246
35.8323
35.3014
34.732
34.1223
33.4757
32.7934
32.0721
31.3023
30.4681
29.5476
28.5156
27.3486
26.034
24.58
23.0222
21.4208
19.8466
18.3594
16.9948
15.7639
14.6588
13.6611
12.749
11.9016
11.1011
10.3334
9.58802
8.85749
8.13661
7.42186
6.71089
6.00222
5.29489
4.5883
3.88208
3.17605
2.47008
1.76414
1.05827
0.352516
35.888
35.3463
34.769
34.1541
33.5049
32.8225
32.1033
31.3373
30.5079
29.592
28.5628
27.3949
26.0738
24.607
23.0313
21.4102
19.8189
18.3199
16.9498
15.7188
14.6172
13.6251
12.7194
11.8782
11.0832
10.3201
9.57841
8.85072
8.13194
7.41871
6.70882
6.0009
5.29407
4.58781
3.88181
3.1759
2.47001
1.76412
1.05828
0.352548
35.888
35.3463
34.769
34.1541
33.5049
32.8226
32.1033
31.3373
30.5079
29.5921
28.5628
27.3949
26.0738
24.6069
23.0313
21.4102
19.819
18.32
16.9499
15.7189
14.6173
13.6253
12.7196
11.8784
11.0833
10.3202
9.57849
8.85078
8.132
7.41875
6.70886
6.00093
5.29409
4.58782
3.88182
3.17591
2.47002
1.76413
1.05828
0.352547
35.8324
35.3015
34.7321
34.1224
33.4758
32.7935
32.0722
31.3024
30.4682
29.5477
28.5157
27.3486
26.034
24.58
23.0223
21.4208
19.8468
18.3596
16.9951
15.7643
14.6592
13.6615
12.7494
11.902
11.1014
10.3337
9.58825
8.85769
8.13678
7.42199
6.711
6.00231
5.29496
4.58835
3.88212
3.17607
2.47009
1.76415
1.05827
0.352514
35.7255
35.216
34.6622
34.0627
33.4213
32.7396
32.0148
31.2383
30.3957
29.4672
28.4304
27.2655
25.9629
24.5319
23.006
21.4395
19.8961
18.4303
17.0763
15.8463
14.7351
13.7275
12.8039
11.9452
11.1346
10.3583
9.60615
8.87036
8.14554
7.42791
6.71491
6.00482
5.29652
4.58929
3.88266
3.17636
2.47022
1.76419
1.05825
0.352457
35.5757
35.0976
34.5666
33.9821
33.3487
32.6687
31.94
31.1556
30.3027
29.3646
28.3226
27.1612
25.8742
24.4722
22.9857
21.4622
19.957
18.5184
17.1782
15.95
14.8318
13.812
12.874
12.0011
11.1775
10.3904
9.6294
8.88683
8.15693
7.4356
6.71998
6.00807
5.29854
4.59049
3.88334
3.17671
2.47038
1.76424
1.05823
0.35239
35.3954
34.9576
34.4554
33.8902
33.2675
32.5906
31.8589
31.0667
30.2037
29.2562
28.2096
27.0526
25.7825
24.4106
22.9644
21.4848
20.019
18.6089
17.284
16.0586
14.9339
13.9017
12.9489
12.0609
11.2236
10.4248
9.65445
8.90456
8.16917
7.44385
6.72538
6.01152
5.30066
4.59174
3.88403
3.17706
2.47053
1.76428
1.05821
0.352328
35.2001
34.8097
34.3411
33.7981
33.1882
32.5162
31.7829
30.9845
30.1129
29.1575
28.1073
26.9547
25.7001
24.3552
22.9448
21.5042
20.0735
18.6894
17.3789
16.1568
15.0268
13.9838
13.0177
12.116
11.2662
10.4566
9.67751
8.92084
8.18036
7.45133
6.73025
6.01458
5.30252
4.59281
3.8846
3.17733
2.47063
1.76429
1.05819
0.352286
35.0084
34.6699
34.2369
33.7174
33.1212
32.4554
31.7224
30.92
30.0422
29.0809
28.0281
26.8792
25.6365
24.3123
22.9292
21.5183
20.1146
18.7507
17.4517
16.2326
15.0987
14.0475
13.0711
12.1588
11.2991
10.4811
9.69513
8.93315
8.18871
7.45683
6.73374
6.01671
5.30374
4.59345
3.8849
3.17742
2.47063
1.76425
1.05815
0.352275
34.8423
34.5555
34.1569
33.6594
33.0765
32.4172
31.6859
30.8818
30.0006
29.0357
27.981
26.834
25.5983
24.2864
22.9197
21.5266
20.1392
18.7875
17.4953
16.2779
15.1415
14.0851
13.1022
12.1833
11.3176
10.4945
9.70447
8.93941
8.19273
7.45927
6.73513
6.0174
5.30401
4.59348
3.8848
3.17728
2.47047
1.76413
1.05809
0.35229
34.726
34.4853
34.1155
33.6355
33.0628
32.4091
31.6803
30.8768
29.9948
29.0285
27.9727
26.8253
25.5907
24.2815
22.9186
21.5299
20.1463
18.797
17.5056
16.2875
15.1495
14.091
13.106
12.1852
11.318
10.4939
9.7033
8.93795
8.19121
7.45782
6.73383
6.0163
5.3031
4.59275
3.88422
3.17682
2.47013
1.76389
1.05796
0.352306
34.6824
34.48
34.129
33.6578
33.0893
32.4384
31.712
30.9108
30.031
29.066
28.0098
26.8598
25.6198
24.3024
22.9294
21.5296
20.1352
18.7768
17.4787
16.2567
15.1175
14.06
13.0776
12.1603
11.2971
10.4768
9.68963
8.92732
8.1831
7.45176
6.72937
6.01307
5.30079
4.59112
3.88308
3.17604
2.46958
1.7635
1.05769
0.35223
34.8023
34.5633
34.1881
33.7016
33.1242
32.4691
31.7421
30.9428
30.0662
29.1044
28.05
26.8986
25.6531
24.3258
22.9394
21.5248
20.1165
18.7473
17.4427
16.2184
15.0805
14.0267
13.0494
12.1375
11.2793
10.4634
9.67992
8.92044
8.17836
7.44859
6.72731
6.01178
5.30002
4.59069
3.88287
3.17595
2.46956
1.76348
1.05765
0.352143
34.842
34.5553
34.1566
33.6592
33.0762
32.4169
31.6856
30.8815
30.0003
29.0354
27.9807
26.8337
25.598
24.2861
22.9192
21.526
20.1385
18.7867
17.4944
16.2768
15.1404
14.084
13.1012
12.1823
11.3167
10.4937
9.70378
8.93882
8.19224
7.45888
6.73482
6.01717
5.30384
4.59336
3.88471
3.17722
2.47044
1.76411
1.05809
0.352298
34.954
34.6165
34.1851
33.6678
33.0728
32.4064
31.6708
30.8644
29.9821
29.0175
27.9641
26.8191
25.586
24.2768
22.9128
21.5229
20.139
18.7911
17.5026
16.2884
15.1544
14.0993
13.1167
12.1971
11.3302
10.5055
9.71375
8.94703
8.19884
7.46407
6.73883
6.02022
5.30612
4.59505
3.88595
3.17812
2.47109
1.76456
1.05835
0.352328
35.1205
34.7264
34.2569
33.7149
33.1049
32.4303
31.6914
30.8851
30.0052
29.0435
27.9923
26.8469
25.6094
24.2916
22.9158
21.5131
20.1182
18.7631
17.4719
16.2587
15.1285
14.0784
13.101
12.1862
11.3232
10.5014
9.71182
8.94649
8.19915
7.46484
6.73979
6.0212
5.30704
4.59585
3.88663
3.17867
2.47151
1.76487
1.05853
0.352359
35.3167
34.8651
34.3563
33.7883
33.1627
32.4803
31.7397
30.9362
30.0616
29.1056
28.0575
26.9098
25.6622
24.3257
22.9251
21.4956
20.0772
18.7059
17.4071
16.1941
15.0694
14.028
13.0603
12.1549
11.3
10.4849
9.70051
8.93906
8.19449
7.46209
6.73831
6.02053
5.30685
4.59593
3.88683
3.17892
2.47176
1.76507
1.05867
0.352422
35.5191
35.0143
34.4682
33.8755
33.2353
32.5466
31.8064
31.0081
30.1417
29.1938
28.1502
26.9993
25.7374
24.3746
22.9384
21.4707
20.0192
18.6252
17.316
16.1033
14.9863
13.9568
13.0023
12.1095
11.2658
10.46
9.68292
8.92701
8.1865
7.45697
6.73517
6.01871
5.30588
4.59549
3.8867
3.17895
2.47187
1.7652
1.05879
0.35252
35.7074
35.1567
34.5782
33.9642
33.3118
32.6187
31.8806
31.0894
30.233
29.2952
28.2577
27.104
25.826
24.4325
22.954
21.4407
19.9501
18.5302
17.21
15.9986
14.8913
13.8757
12.9363
12.0579
11.2268
10.4315
9.66257
8.9129
8.17698
7.45074
6.73122
6.01631
5.3045
4.59476
3.88637
3.17885
2.47189
1.76528
1.05889
0.352638
35.8644
35.2777
34.6736
34.0428
33.3811
32.6854
31.9504
31.167
30.3211
29.3941
28.3637
27.2085
25.9157
24.4915
22.9698
21.4097
19.8795
18.4345
17.1047
15.8961
14.7992
13.7977
12.8732
12.0087
11.1897
10.4042
9.64313
8.89937
8.1678
7.44468
6.72734
6.01391
5.30308
4.59398
3.88598
3.1787
2.47186
1.76533
1.05898
0.352757
35.9768
35.3653
34.7437
34.1013
33.4335
32.7367
32.0047
31.2278
30.3909
29.4732
28.4495
27.2943
25.9903
24.5412
22.9831
21.3833
19.8201
18.3552
17.0188
15.8135
14.7259
13.7361
12.8237
11.9703
11.1608
10.383
9.62799
8.88882
8.16062
7.43992
6.72428
6.012
5.30195
4.59334
3.88565
3.17856
2.47183
1.76535
1.05905
0.352852
36.0354
35.4113
34.7807
34.1325
33.4617
32.7644
32.0343
31.2613
30.4295
29.5173
28.4977
27.343
26.0331
24.5702
22.9909
21.3679
19.7857
18.3098
16.9703
15.7674
14.6853
13.7022
12.7965
11.9493
11.145
10.3715
9.61976
8.88309
8.15673
7.43734
6.72261
6.01096
5.30133
4.59298
3.88547
3.17848
2.47181
1.76537
1.05908
0.352904
36.0354
35.4113
34.7807
34.1325
33.4618
32.7644
32.0344
31.2613
30.4295
29.5173
28.4978
27.343
26.0331
24.5701
22.9909
21.368
19.7858
18.3099
16.9704
15.7676
14.6854
13.7023
12.7966
11.9494
11.1451
10.3716
9.61984
8.88315
8.15678
7.43738
6.72265
6.01099
5.30135
4.593
3.88548
3.17849
2.47182
1.76537
1.05908
0.352903
35.9769
35.3654
34.7438
34.1014
33.4336
32.7367
32.0048
31.2279
30.391
29.4733
28.4496
27.2943
25.9902
24.5412
22.9831
21.3834
19.8203
18.3555
17.0192
15.8139
14.7263
13.7365
12.824
11.9706
11.1611
10.3833
9.62822
8.88901
8.16078
7.44005
6.72438
6.01208
5.30201
4.59338
3.88569
3.17858
2.47185
1.76536
1.05905
0.352849
35.8645
35.2778
34.6738
34.0429
33.3813
32.6856
31.9506
31.1671
30.3213
29.3942
28.3638
27.2086
25.9157
24.4915
22.9698
21.4098
19.8798
18.4349
17.1052
15.8966
14.7998
13.7983
12.8738
12.0093
11.1902
10.4047
9.64349
8.89967
8.16805
7.44488
6.7275
6.01404
5.30318
4.59405
3.88604
3.17873
2.47189
1.76534
1.05899
0.352753
35.7076
35.1569
34.5784
33.9644
33.312
32.6189
31.8808
31.0896
30.2332
29.2954
28.2579
27.1041
25.8261
24.4325
22.9541
21.441
19.9505
18.5307
17.2106
15.9993
14.8921
13.8764
12.937
12.0586
11.2274
10.432
9.66304
8.9133
8.17732
7.45101
6.73144
6.01648
5.30463
4.59486
3.88644
3.1789
2.47192
1.76529
1.0589
0.352634
35.5193
35.0145
34.4684
33.8757
33.2355
32.5469
31.8066
31.0084
30.1419
29.1941
28.1505
26.9995
25.7375
24.3747
22.9386
21.4711
20.0197
18.6259
17.3168
16.1041
14.9873
13.9577
13.0031
12.1103
11.2665
10.4607
9.68349
8.92749
8.1869
7.4573
6.73543
6.01891
5.30604
4.5956
3.88678
3.17901
2.4719
1.76522
1.0588
0.352514
35.3169
34.8654
34.3565
33.7886
33.1629
32.4805
31.74
30.9364
30.0619
29.1059
28.0578
26.9101
25.6624
24.326
22.9254
21.496
20.0778
18.7067
17.408
16.1951
15.0704
14.0291
13.0613
12.1558
11.3008
10.4857
9.70115
8.9396
8.19494
7.46245
6.7386
6.02075
5.30702
4.59606
3.88692
3.17898
2.47179
1.76509
1.05868
0.352416
35.1208
34.7266
34.2572
33.7152
33.1052
32.4306
31.6917
30.8854
30.0054
29.0438
27.9926
26.8472
25.6097
24.2919
22.9162
21.5136
20.1189
18.7639
17.4728
16.2598
15.1296
14.0795
13.1021
12.1872
11.3241
10.5022
9.71249
8.94706
8.19962
7.46522
6.74009
6.02143
5.30722
4.59598
3.88672
3.17873
2.47155
1.76488
1.05854
0.352351
34.9543
34.6168
34.1854
33.668
33.0731
32.4067
31.6711
30.8646
29.9824
29.0178
27.9644
26.8194
25.5862
24.2771
22.9132
21.5234
20.1397
18.792
17.5036
16.2895
15.1555
14.1004
13.1178
12.1981
11.3311
10.5063
9.71444
8.94761
8.19932
7.46446
6.73913
6.02045
5.3063
4.59517
3.88603
3.17817
2.47112
1.76457
1.05835
0.352319
34.8423
34.5555
34.1569
33.6594
33.0765
32.4172
31.6859
30.8818
30.0006
29.0357
27.981
26.834
25.5983
24.2864
22.9196
21.5266
20.1392
18.7876
17.4954
16.2779
15.1415
14.0851
13.1023
12.1833
11.3176
10.4945
9.70445
8.93939
8.1927
7.45925
6.7351
6.01738
5.30399
4.59347
3.88478
3.17726
2.47046
1.76411
1.05808
0.352287
34.8026
34.5635
34.1884
33.7018
33.1244
32.4693
31.7424
30.9431
30.0665
29.1047
28.0503
26.8989
25.6533
24.3261
22.9398
21.5253
20.1173
18.7482
17.4437
16.2195
15.0816
14.0279
13.0505
12.1385
11.2802
10.4642
9.68056
8.92097
8.17879
7.44892
6.72757
6.01197
5.30015
4.59078
3.88292
3.17597
2.46956
1.76347
1.05763
0.352127
34.9654
34.6841
34.279
33.7728
33.1841
32.5244
31.7981
31.0033
30.1331
29.1774
28.1258
26.9716
25.7153
24.3692
22.9577
21.5154
20.0815
18.6925
17.376
16.1478
15.0126
13.9659
12.9979
12.0959
11.247
10.4392
9.66223
8.9079
8.1697
7.44276
6.72349
6.00935
5.29853
4.58982
3.88238
3.1757
2.46943
1.7634
1.05757
0.352058
35.0082
34.6696
34.2366
33.7171
33.121
32.4551
31.7221
30.9196
30.0419
29.0806
28.0278
26.8788
25.6362
24.312
22.9288
21.5177
20.1139
18.7499
17.4508
16.2316
15.0977
14.0465
13.0701
12.1579
11.2982
10.4803
9.69446
8.93258
8.18824
7.45644
6.73344
6.01647
5.30356
4.59332
3.8848
3.17736
2.47059
1.76423
1.05815
0.352282
35.1205
34.7264
34.2569
33.7149
33.1049
32.4303
31.6914
30.8851
30.0051
29.0435
27.9922
26.8469
25.6094
24.2915
22.9158
21.5131
20.1182
18.7631
17.4719
16.2588
15.1285
14.0785
13.1011
12.1863
11.3232
10.5015
9.71183
8.9465
8.19915
7.46484
6.73979
6.0212
5.30704
4.59585
3.88663
3.17867
2.47151
1.76487