# vtk DataFile Version 2.0
I need something to put here
ASCII

DATASET STRUCTURED_GRID
DIMENSIONS 41 21 21
POINTS 18081 float
0.000000 0.000000 0.000000
0.100000 0.000000 0.000000
0.200000 0.000000 0.000000
0.300000 0.000000 0.000000
0.400000 0.000000 0.000000
0.500000 0.000000 0.000000
0.600000 0.000000 0.000000
0.700000 0.000000 0.000000
0.800000 0.000000 0.000000
0.900000 0.000000 0.000000
1.000000 0.000000 0.000000
1.100000 0.000000 0.000000
1.200000 0.000000 0.000000
1.300000 0.000000 0.000000
1.400000 0.000000 0.000000
1.500000 0.000000 0.000000
1.600000 0.000000 0.000000
1.700000 0.000000 0.000000
1.800000 0.000000 0.000000
1.900000 0.000000 0.000000
2.000000 0.000000 0.000000
2.100000 0.000000 0.000000
2.200000 0.000000 0.000000
2.300000 0.000000 0.000000
2.400000 0.000000 0.000000
2.500000 0.000000 0.000000
2.600000 0.000000 0.000000
2.700000 0.000000 0.000000
2.800000 0.000000 0.000000
2.900000 0.000000 0.000000
3.000000 0.000000 0.000000
3.100000 0.000000 0.000000
3.200000 0.000000 0.000000
3.300000 0.000000 0.000000
3.400000 0.000000 0.000000
3.500000 0.000000 0.000000
3.600000 0.000000 0.000000
3.700000 0.000000 0.000000
3.800000 0.000000 0.000000
3.900000 0.000000 0.000000
4.000000 0.000000 0.000000
0.000000 0.100000 0.000000
0.100000 0.100000 0.000000
0.200000 0.100000 0.000000
0.300000 0.100000 0.000000
0.400000 0.100000 0.000000
0.500000 0.100000 0.000000
0.600000 0.100000 0.000000
0.700000 0.100000 0.000000
0.800000 0.100000 0.000000
0.900000 0.100000 0.000000
1.000000 0.100000 0.000000
1.100000 0.100000 0.000000
1.200000 0.100000 0.000000
1.300000 0.100000 0.000000
1.400000 0.100000 0.000000
1.500000 0.100000 0.000000
1.600000 0.100000 0.000000
1.700000 0.100000 0.000000
1.800000 0.100000 0.000000
1.900000 0.100000 0.000000
2.000000 0.100000 0.000000
2.100000 0.100000 0.000000
2.200000 0.100000 0.000000
2.300000 0.100000 0.000000
2.400000 0.100000 0.000000
2.500000 0.100000 0.000000
2.600000 0.100000 0.000000
2.700000 0.100000 0.000000
2.800000 0.100000 0.000000
2.900000 0.100000 0.000000
3.000000 0.100000 0.000000
3.100000 0.100000 0.000000
3.200000 0.100000 0.000000
3.300000 0.100000 0.000000
3.400000 0.100000 0.000000
3.500000 0.100000 0.000000
3.600000 0.100000 0.000000
3.700000 0.100000 0.000000
3.800000 0.100000 0.000000
3.900000 0.100000 0.000000
4.000000 0.100000 0.000000
0.000000 0.200000 0.000000
0.100000 0.200000 0.000000
0.200000 0.200000 0.000000
0.300000 0.200000 0.000000
0.400000 0.200000 0.000000
0.500000 0.200000 0.000000
0.600000 0.200000 0.000000
0.700000 0.200000 0.000000
0.800000 0.200000 0.000000
0.900000 0.200000 0.000000
1.000000 0.200000 0.000000
1.100000 0.200000 0.000000
1.200000 0.200000 0.000000
1.300000 0.200000 0.000000
1.400000 0.200000 0.000000
1.500000 0.200000 0.000000
1.600000 0.200000 0.000000
1.700000 0.200000 0.000000
1.800000 0.200000 0.000000
1.900000 0.200000 0.000000
2.000000 0.200000 0.000000
2.100000 0.200000 0.000000
2.200000 0.200000 0.000000
2.300000 0.200000 0.000000
2.400000 0.200000 0.000000
2.500000 0.200000 0.000000
2.600000 0.200000 0.000000
2.700000 0.200000 0.000000
2.800000 0.200000 0.000000
2.900000 0.200000 0.000000
3.000000 0.200000 0.000000
3.100000 0.200000 0.000000
3.200000 0.200000 0.000000
3.300000 0.200000 0.000000
3.400000 0.200000 0.000000
3.500000 0.200000 0.000000
3.600000 0.200000 0.000000
3.700000 0.200000 0.000000
3.800000 0.200000 0.000000
3.900000 0.200000 0.000000
4.000000 0.200000 0.000000
0.000000 0.300000 0.000000
0.100000 0.300000 0.000000
0.200000 0.300000 0.000000
0.300000 0.300000 0.000000
0.400000 0.300000 0.000000
0.500000 0.300000 0.000000
0.600000 0.300000 0.000000
0.700000 0.300000 0.000000
0.800000 0.300000 0.000000
0.900000 0.300000 0.000000
1.000000 0.300000 0.000000
1.100000 0.300000 0.000000
1.200000 0.300000 0.000000
1.300000 0.300000 0.000000
1.400000 0.300000 0.000000
1.500000 0.300000 0.000000
1.600000 0.300000 0.000000
1.700000 0.300000 0.000000
1.800000 0.300000 0.000000
1.900000 0.300000 0.000000
2.000000 0.300000 0.000000
2.100000 0.300000 0.000000
2.200000 0.300000 0.000000
2.300000 0.300000 0.000000
2.400000 0.300000 0.000000
2.500000 0.300000 0.000000
2.600000 0.300000 0.000000
2.700000 0.300000 0.000000
2.800000 0.300000 0.000000
2.900000 0.300000 0.000000
3.000000 0.300000 0.000000
3.100000 0.300000 0.000000
3.200000 0.300000 0.000000
3.300000 0.300000 0.000000
3.400000 0.300000 0.000000
3.500000 0.300000 0.000000
3.600000 0.300000 0.000000
3.700000 0.300000 0.000000
3.800000 0.300000 0.000000
3.900000 0.300000 0.000000
4.000000 0.300000 0.000000
0.000000 0.400000 0.000000
0.100000 0.400000 0.000000
0.200000 0.400000 0.000000
0.300000 0.400000 0.000000
0.400000 0.400000 0.000000
0.500000 0.400000 0.000000
0.600000 0.400000 0.000000
0.700000 0.400000 0.000000
0.800000 0.400000 0.000000
0.900000 0.400000 0.000000
1.000000 0.400000 0.000000
1.100000 0.400000 0.000000
1.200000 0.400000 0.000000
1.300000 0.400000 0.000000
1.400000 0.400000 0.000000
1.500000 0.400000 0.000000
1.600000 0.400000 0.000000
1.700000 0.400000 0.000000
1.800000 0.400000 0.000000
1.900000 0.400000 0.000000
2.000000 0.400000 0.000000
2.100000 0.400000 0.000000
2.200000 0.400000 0.000000
2.300000 0.400000 0.000000
2.400000 0.400000 0.000000
2.500000 0.400000 0.000000
2.600000 0.400000 0.000000
2.700000 0.400000 0.000000
2.800000 0.400000 0.000000
2.900000 0.400000 0.000000
3.000000 0.400000 0.000000
3.100000 0.400000 0.000000
3.200000 0.400000 0.000000
3.300000 0.400000 0.000000
3.400000 0.400000 0.000000
3.500000 0.400000 0.000000
3.600000 0.400000 0.000000
3.700000 0.400000 0.000000
3.800000 0.400000 0.000000
3.900000 0.400000 0.000000
4.000000 0.400000 0.000000
0.000000 0.500000 0.000000
0.100000 0.500000 0.000000
0.200000 0.500000 0.000000
0.300000 0.500000 0.000000
0.400000 0.500000 0.000000
0.500000 0.500000 0.000000
0.600000 0.500000 0.000000
0.700000 0.500000 0.000000
0.800000 0.500000 0.000000
0.900000 0.500000 0.000000
1.000000 0.500000 0.000000
1.100000 0.500000 0.000000
1.200000 0.500000 0.000000
1.300000 0.500000 0.000000
1.400000 0.500000 0.000000
1.500000 0.500000 0.000000
1.600000 0.500000 0.000000
1.700000 0.500000 0.000000
1.800000 0.500000 0.000000
1.900000 0.500000 0.000000
2.000000 0.500000 0.000000
2.100000 0.500000 0.000000
2.200000 0.500000 0.000000
2.300000 0.500000 0.000000
2.400000 0.500000 0.000000
2.500000 0.500000 0.000000
2.600000 0.500000 0.000000
2.700000 0.500000 0.000000
2.800000 0.500000 0.000000
2.900000 0.500000 0.000000
3.000000 0.500000 0.000000
3.100000 0.500000 0.000000
3.200000 0.500000 0.000000
3.300000 0.500000 0.000000
3.400000 0.500000 0.000000
3.500000 0.500000 0.000000
3.600000 0.500000 0.000000
3.700000 0.500000 0.000000
3.800000 0.500000 0.000000
3.900000 0.500000 0.000000
4.000000 0.500000 0.000000
0.000000 0.600000 0.000000
0.100000 0.600000 0.000000
0.200000 0.600000 0.000000
0.300000 0.600000 0.000000
0.400000 0.600000 0.000000
0.500000 0.600000 0.000000
0.600000 0.600000 0.000000
0.700000 0.600000 0.000000
0.800000 0.600000 0.000000
0.900000 0.600000 0.000000
1.000000 0.600000 0.000000
1.100000 0.600000 0.000000
1.200000 0.600000 0.000000
1.300000 0.600000 0.000000
1.400000 0.600000 0.000000
1.500000 0.600000 0.000000
1.600000 0.600000 0.000000
1.700000 0.600000 0.000000
1.800000 0.600000 0.000000
1.900000 0.600000 0.000000
2.000000 0.600000 0.000000
2.100000 0.600000 0.000000
2.200000 0.600000 0.000000
2.300000 0.600000 0.000000
2.400000 0.600000 0.000000
2.500000 0.600000 0.000000
2.600000 0.600000 0.000000
2.700000 0.600000 0.000000
2.800000 0.600000 0.000000
2.900000 0.600000 0.000000
3.000000 0.600000 0.000000
3.100000 0.600000 0.000000
3.200000 0.600000 0.000000
3.300000 0.600000 0.000000
3.400000 0.600000 0.000000
3.500000 0.600000 0.000000
3.600000 0.600000 0.000000
3.700000 0.600000 0.000000
3.800000 0.600000 0.000000
3.900000 0.600000 0.000000
4.000000 0.600000 0.000000
0.000000 0.700000 0.000000
0.100000 0.700000 0.000000
0.200000 0.700000 0.000000
0.300000 0.700000 0.000000
0.400000 0.700000 0.000000
0.500000 0.700000 0.000000
0.600000 0.700000 0.000000
0.700000 0.700000 0.000000
0.800000 0.700000 0.000000
0.900000 0.700000 0.000000
1.000000 0.700000 0.000000
1.100000 0.700000 0.000000
1.200000 0.700000 0.000000
1.300000 0.700000 0.000000
1.400000 0.700000 0.000000
1.500000 0.700000 0.000000
1.600000 0.700000 0.000000
1.700000 0.700000 0.000000
1.800000 0.700000 0.000000
1.900000 0.700000 0.000000
2.000000 0.700000 0.000000
2.100000 0.700000 0.000000
2.200000 0.700000 0.000000
2.300000 0.700000 0.000000
2.400000 0.700000 0.000000
2.500000 0.700000 0.000000
2.600000 0.700000 0.000000
2.700000 0.700000 0.000000
2.800000 0.700000 0.000000
2.900000 0.700000 0.000000
3.000000 0.700000 0.000000
3.100000 0.700000 0.000000
3.200000 0.700000 0.000000
3.300000 0.700000 0.000000
3.400000 0.700000 0.000000
3.500000 0.700000 0.000000
3.600000 0.700000 0.000000
3.700000 0.700000 0.000000
3.800000 0.700000 0.000000
3.900000 0.700000 0.000000
4.000000 0.700000 0.000000
0.000000 0.800000 0.000000
0.100000 0.800000 0.000000
0.200000 0.800000 0.000000
0.300000 0.800000 0.000000
0.400000 0.800000 0.000000
0.500000 0.800000 0.000000
0.600000 0.800000 0.000000
0.700000 0.800000 0.000000
0.800000 0.800000 0.000000
0.900000 0.800000 0.000000
1.000000 0.800000 0.000000
1.100000 0.800000 0.000000
1.200000 0.800000 0.000000
1.300000 0.800000 0.000000
1.400000 0.800000 0.000000
1.500000 0.800000 0.000000
1.600000 0.800000 0.000000
1.700000 0.800000 0.000000
1.800000 0.800000 0.000000
1.900000 0.800000 0.000000
2.000000 0.800000 0.000000
2.100000 0.800000 0.000000
2.200000 0.800000 0.000000
2.300000 0.800000 0.000000
2.400000 0.800000 0.000000
2.500000 0.800000 0.000000
2.600000 0.800000 0.000000
2.700000 0.800000 0.000000
2.800000 0.800000 0.000000
2.900000 0.800000 0.000000
3.000000 0.800000 0.000000
3.100000 0.800000 0.000000
3.200000 0.800000 0.000000
3.300000 0.800000 0.000000
3.400000 0.800000 0.000000
3.500000 0.800000 0.000000
3.600000 0.800000 0.000000
[...]
CELL_DATA 16000
SCALARS pressure float 1
LOOKUP_TABLE default
34.7212
34.5445
34.2074
33.7435
33.1783
32.5281
31.8005
30.9965
30.1124
29.1421
28.08
26.9238
25.6781
24.3557
22.9783
21.5747
20.1765
18.8139
17.511
16.2838
15.1393
14.0768
13.09
12.1691
11.3029
10.4805
9.69178
8.92842
8.18354
7.4518
6.7292
6.01279
5.30049
4.59084
3.88283
3.17583
2.46942
1.76339
1.05764
0.352274
34.7768
34.5746
34.2236
33.752
33.1827
32.5304
31.8019
30.9979
30.1142
29.1446
28.0831
26.9273
25.6813
24.3579
22.9791
21.5738
20.1741
18.8105
17.5072
16.2803
15.1364
14.0748
13.0888
12.1686
11.303
10.4809
9.69241
8.92913
8.18424
7.45245
6.72976
6.01327
5.30088
4.59114
3.88307
3.17601
2.46956
1.76347
1.05768
0.352225
34.8971
34.6582
34.2831
33.7963
33.2181
32.5617
31.8327
31.0305
30.1501
29.1838
28.1238
26.9665
25.7148
24.3816
22.9895
21.5695
20.1561
18.7818
17.4721
16.2429
15.1003
14.0423
13.0614
12.1465
11.2858
10.4681
9.68319
8.92268
8.17986
7.44957
6.72793
6.01215
5.30024
4.5908
3.88291
3.17596
2.46954
1.76346
1.05762
0.352124
35.0603
34.7793
34.3743
33.8679
33.2785
32.6176
31.8894
31.0918
30.2178
29.2573
28.2002
27.0396
25.777
24.4248
23.0076
21.56
20.1211
18.727
17.4053
16.172
15.032
13.981
13.0094
12.1044
11.2531
10.4435
9.6652
8.9099
8.17102
7.44361
6.72402
6.00966
5.29871
4.5899
3.88241
3.17569
2.46941
1.76337
1.05754
0.352036
35.2454
34.9223
34.4859
33.9586
33.3577
32.6932
31.9678
31.1777
30.3134
29.3619
28.3089
27.1439
25.8655
24.4856
23.0319
21.5443
20.0685
18.6464
17.3082
16.0699
14.9342
13.8937
12.9356
12.0449
11.2069
10.4088
9.63987
8.89189
8.15853
7.43515
6.71843
6.00607
5.29647
4.58856
3.88164
3.17527
2.46919
1.76325
1.05746
0.351982
35.433
35.0717
34.6057
34.0587
33.4474
32.7808
32.0605
31.2806
30.4293
29.4893
28.4421
27.2722
25.9743
24.5601
23.0605
21.5226
20.0011
18.5446
17.1868
15.9435
14.8141
13.7873
12.8464
11.9733
11.1515
10.3673
9.60969
8.87047
8.14368
7.42509
6.71178
6.00178
5.29378
4.58693
3.88069
3.17475
2.46892
1.76312
1.05739
0.351963
35.6061
35.2127
34.7212
34.1572
33.5376
32.8708
32.1572
31.3894
30.5528
29.6264
28.5864
27.4118
26.0932
24.6413
23.0908
21.4972
19.9252
18.4316
17.0535
15.8059
14.6845
13.6734
12.7515
11.8976
11.0933
10.3239
9.5782
8.84817
8.12825
7.41465
6.70488
5.99732
5.29098
4.58523
3.8797
3.1742
2.46863
1.76299
1.05735
0.351972
35.7499
35.3317
34.8203
34.2432
33.6177
32.9519
32.2455
31.4898
30.6678
29.7551
28.7229
27.5448
26.2071
24.7191
23.1194
21.4717
19.8512
18.3224
16.9258
15.6753
14.5626
13.567
12.6635
11.8278
11.0399
10.2842
9.54951
8.82791
8.11426
7.4052
6.69863
5.9933
5.28845
4.58369
3.87881
3.17371
2.46839
1.76288
1.05732
0.351997
35.8526
35.4177
34.8928
34.3069
33.6777
33.0134
32.3131
31.5673
30.7572
29.8558
28.8304
27.6503
26.2979
24.7812
23.142
21.4508
19.7914
18.2349
16.8245
15.5723
14.4671
13.4843
12.5954
11.7741
10.999
10.2539
9.52765
8.81251
8.10365
7.39804
6.69391
5.99026
5.28655
4.58254
3.87813
3.17334
2.4682
1.76281
1.05731
0.352024
35.9062
35.4627
34.931
34.3407
33.7098
33.0465
32.3498
31.6095
30.8063
29.9113
28.8899
27.7089
26.3485
24.816
23.1546
21.439
19.7579
18.1861
16.7681
15.5154
14.4147
13.439
12.5583
11.7449
10.9768
10.2376
9.51587
8.80423
8.09795
7.39421
6.69139
5.98864
5.28553
4.58192
3.87778
3.17314
2.4681
1.76277
1.05731
0.352042
35.9062
35.4628
34.9311
34.3408
33.7099
33.0466
32.3498
31.6096
30.8063
29.9113
28.89
27.709
26.3485
24.816
23.1546
21.439
19.7579
18.1862
16.7682
15.5156
14.4148
13.4391
12.5584
11.745
10.9769
10.2376
9.51594
8.80429
8.098
7.39425
6.69142
5.98866
5.28555
4.58194
3.87779
3.17315
2.46811
1.76277
1.05731
0.352042
35.8528
35.4178
34.8929
34.307
33.6779
33.0136
32.3133
31.5675
30.7574
29.856
28.8306
27.6504
26.2979
24.7813
23.142
21.4509
19.7916
18.2352
16.8247
15.5727
14.4675
13.4847
12.5957
11.7744
10.9993
10.2542
9.52787
8.81269
8.10379
7.39816
6.69401
5.99033
5.28661
4.58258
3.87817
3.17336
2.46821
1.76281
1.05732
0.352027
35.7501
35.3319
34.8206
34.2435
33.618
32.9522
32.2458
31.4901
30.6681
29.7554
28.7231
27.545
26.2072
24.7192
23.1195
21.4719
19.8514
18.3227
16.9263
15.6758
14.5632
13.5676
12.664
11.8283
11.0404
10.2846
9.54985
8.82819
8.11449
7.40539
6.69878
5.99342
5.28855
4.58376
3.87886
3.17374
2.46841
1.76289
1.05733
0.352001
35.6064
35.213
34.7216
34.1576
33.538
32.8712
32.1576
31.3898
30.5532
29.6268
28.5867
27.4121
26.0934
24.6415
23.091
21.4975
19.9256
18.4321
17.0541
15.8066
14.6853
13.6742
12.7522
11.8983
11.0939
10.3244
9.57865
8.84855
8.12856
7.4149
6.70507
5.99748
5.2911
4.58532
3.87977
3.17425
2.46866
1.76301
1.05736
0.351977
35.4334
35.0721
34.6061
34.0591
33.4478
32.7813
32.0609
31.2811
30.4298
29.4898
28.4426
27.2725
25.9746
24.5604
23.0608
21.523
20.0016
18.5452
17.1876
15.9443
14.815
13.7882
12.8472
11.9741
11.1523
10.3679
9.61022
8.87092
8.14404
7.42538
6.71201
6.00196
5.29392
4.58703
3.88077
3.1748
2.46895
1.76314
1.0574
0.351968
35.2458
34.9227
34.4863
33.959
33.3582
32.6937
31.9683
31.1782
30.314
29.3624
28.3094
27.1444
25.8659
24.486
23.0323
21.5448
20.0691
18.6471
17.309
16.0708
14.9351
13.8947
12.9366
12.0458
11.2077
10.4094
9.64045
8.89238
8.15893
7.43547
6.71869
6.00627
5.29662
4.58867
3.88172
3.17532
2.46922
1.76327
1.05747
0.351986
35.0608
34.7797
34.3748
33.8684
33.279
32.6181
31.8899
31.0924
30.2184
29.2579
28.2007
27.0402
25.7775
24.4253
23.0081
21.5606
20.1218
18.7278
17.4063
16.1731
15.033
13.9821
13.0103
12.1053
11.2539
10.4442
9.66581
8.91042
8.17145
7.44395
6.72429
6.00987
5.29886
4.59002
3.88249
3.17575
2.46944
1.76339
1.05755
0.35204
34.8976
34.6587
34.2836
33.7968
33.2186
32.5622
31.8332
31.0311
30.1507
29.1843
28.1244
26.9671
25.7154
24.3821
22.9901
21.5702
20.1569
18.7827
17.4731
16.2439
15.1013
14.0434
13.0623
12.1474
11.2867
10.4688
9.68381
8.9232
8.18028
7.4499
6.7282
6.01236
5.30039
4.59091
3.88299
3.176
2.46957
1.76347
1.05763
0.352125
34.7773
34.5751
34.2241
33.7525
33.1832
32.5309
31.8025
30.9984
30.1148
29.1452
28.0837
26.9279
25.6818
24.3585
22.9798
21.5745
20.1749
18.8114
17.5082
16.2813
15.1374
14.0758
13.0898
12.1695
11.3038
10.4816
9.693
8.92963
8.18465
7.45277
6.73001
6.01346
5.30102
4.59124
3.88314
3.17605
2.46958
1.76348
1.05768
0.352223
34.7217
34.5449
34.2079
33.744
33.1788
32.5286
31.8011
30.9971
30.113
29.1427
28.0806
26.9244
25.6787
24.3562
22.979
21.5754
20.1773
18.8147
17.5119
16.2848
15.1403
14.0778
13.091
12.1699
11.3037
10.4811
9.69235
8.9289
8.18392
7.45211
6.72944
6.01297
5.30063
4.59093
3.88289
3.17586
2.46944
1.76339
1.05764
0.352269
34.7768
34.5746
34.2236
33.752
33.1827
32.5304
31.8019
30.9978
30.1142
29.1446
28.0831
26.9273
25.6813
24.3579
22.9791
21.5738
20.1741
18.8105
17.5073
16.2803
15.1364
14.0748
13.0888
12.1686
11.303
10.4809
9.69241
8.92913
8.18424
7.45245
6.72976
6.01327
5.30088
4.59114
3.88307
3.17601
2.46956
1.76347
1.05768
0.352225
34.8204
34.5798
34.2099
33.7296
33.156
32.5008
31.7699
30.9635
30.0777
29.1069
28.0459
26.8928
25.6522
24.337
22.9684
21.5742
20.1852
18.8307
17.5342
16.3112
15.1685
14.1059
13.1174
12.1936
11.3241
10.4982
9.70622
8.93989
8.19244
7.45858
6.73427
6.01653
5.30321
4.59278
3.88421
3.17681
2.47011
1.76386
1.05794
0.3523
34.9365
34.65
34.2513
33.7535
33.1697
32.509
31.7756
30.9687
30.0837
29.1142
28.0543
26.9014
25.6598
24.3419
22.9694
21.5709
20.1782
18.8213
17.524
16.3015
15.1605
14.1
13.1136
12.1917
11.3237
10.4987
9.70737
8.94132
8.19395
7.46002
6.73556
6.01764
5.30412
4.59352
3.8848
3.17725
2.47045
1.7641
1.05807
0.352282
35.1028
34.7646
34.3316
33.8118
33.2148
32.5476
31.8125
31.0073
30.1258
29.1598
28.1016
26.9467
25.6979
24.3676
22.9788
21.5625
20.1536
18.7845
17.4803
16.2561
15.1175
14.0622
13.0822
12.1669
11.3049
10.4851
9.69786
8.93494
8.18985
7.45751
6.73413
6.01691
5.30383
4.59347
3.88488
3.17739
2.47059
1.76421
1.05812
0.352264
35.2948
34.9047
34.4362
33.8929
33.2823
32.609
31.8738
31.0725
30.1972
29.237
28.1812
27.0224
25.7613
24.4103
22.9942
21.5483
20.1125
18.7232
17.4074
16.1802
15.0452
13.998
13.0283
12.1237
11.2716
10.4603
9.67998
8.92243
8.18135
7.45192
6.73058
6.01474
5.30257
4.59281
3.88457
3.17729
2.47059
1.76424
1.05815
0.352274
35.4906
35.0531
34.551
33.9856
33.3623
32.6842
31.9507
31.1557
30.2889
29.3365
28.284
27.1203
25.8435
24.4653
23.0135
21.5288
20.0581
18.6428
17.3125
16.0817
14.9519
13.9153
12.9589
12.068
11.2286
10.4281
9.6566
8.90592
8.16999
7.44431
6.72563
6.01162
5.30068
4.59172
3.88399
3.17701
2.47048
1.76423
1.05817
0.352313
35.6715
35.1937
34.6627
34.0782
33.4442
32.7632
32.0328
31.2456
30.389
29.4458
28.3976
27.2291
25.935
24.5265
23.0345
21.5061
19.9962
18.5524
17.2067
15.9728
14.8494
13.825
12.8834
12.0076
11.1819
10.3933
9.63125
8.88796
8.15759
7.43596
6.72014
6.00812
5.29853
4.59045
3.88328
3.17665
2.47033
1.76418
1.05819
0.352374
35.8219
35.3126
34.7589
34.1594
33.5175
32.8349
32.1085
31.3294
30.483
29.5493
28.506
27.3336
26.0235
24.5858
23.0545
21.4833
19.9355
18.4646
17.1049
15.8689
14.7523
13.74
12.8127
11.9512
11.1385
10.3609
9.60773
8.8713
8.14607
7.42818
6.71502
6.00484
5.29649
4.58924
3.8826
3.17629
2.47017
1.76414
1.05821
0.352441
35.9293
35.3986
34.8293
34.2195
33.5726
32.8895
32.1666
31.3943
30.5563
29.6305
28.5917
27.4168
26.0943
24.6335
23.0705
21.4647
19.8863
18.3941
17.0238
15.7869
14.6762
13.6738
12.7579
11.9077
11.1051
10.336
9.58968
8.85852
8.13723
7.42221
6.71109
6.00232
5.29492
4.58829
3.88206
3.17601
2.47004
1.7641
1.05823
0.352498
35.9852
35.4436
34.8665
34.2516
33.6021
32.9189
32.1982
31.4297
30.5965
29.6752
28.6391
27.4631
26.134
24.6603
23.0795
21.4541
19.8587
18.3547
16.9788
15.7416
14.6344
13.6375
12.728
11.884
11.087
10.3225
9.57991
8.85162
8.13246
7.419
6.70897
6.00096
5.29408
4.58779
3.88177
3.17586
2.46997
1.76408
1.05824
0.35253
35.9852
35.4437
34.8665
34.2516
33.6021
32.919
32.1983
31.4298
30.5965
29.6753
28.6391
27.4632
26.134
24.6603
23.0795
21.4541
19.8587
18.3548
16.9789
15.7417
14.6345
13.6376
12.7281
11.8841
11.0871
10.3226
9.57998
8.85168
8.13251
7.41903
6.709
6.00098
5.2941
4.5878
3.88178
3.17587
2.46997
1.76408
1.05824
0.35253
35.9294
35.3987
34.8295
34.2197
33.5727
32.8897
32.1668
31.3945
30.5564
29.6307
28.5918
27.4169
26.0944
24.6336
23.0705
21.4648
19.8865
18.3944
17.0241
15.7873
14.6765
13.6741
12.7582
11.908
11.1054
10.3362
9.58987
8.85869
8.13737
7.42232
6.71118
6.00239
5.29498
4.58834
3.88209
3.17603
2.47005
1.7641
1.05823
0.352497
35.8221
35.3128
34.7592
34.1596
33.5178
32.8352
32.1088
31.3297
30.4833
29.5496
28.5062
27.3338
26.0236
24.5859
23.0546
21.4835
19.9358
18.465
17.1053
15.8695
14.7529
13.7405
12.8133
11.9517
11.139
10.3613
9.60805
8.87157
8.14629
7.42836
6.71516
6.00496
5.29658
4.5893
3.88264
3.17633
2.47018
1.76415
1.05821
0.352441
35.6719
35.194
34.6631
34.0785
33.4446
32.7635
32.0331
31.246
30.3894
29.4462
28.398
27.2294
25.9353
24.5267
23.0347
21.5064
19.9966
18.5529
17.2073
15.9735
14.8501
13.8257
12.8841
12.0082
11.1825
10.3937
9.63166
8.88831
8.15788
7.43619
6.72033
6.00827
5.29864
4.59053
3.88334
3.17669
2.47035
1.7642
1.05819
0.352373
35.491
35.0535
34.5514
33.986
33.3627
32.6847
31.9511
31.1562
30.2894
29.337
28.2845
27.1207
25.8438
24.4656
23.0138
21.5292
20.0586
18.6435
17.3132
16.0825
14.9528
13.9161
12.9597
12.0687
11.2292
10.4287
9.6571
8.90633
8.17034
7.44459
6.72585
6.01179
5.30082
4.59182
3.88406
3.17706
2.47051
1.76424
1.05817
0.352312
35.2953
34.9051
34.4366
33.8934
33.2827
32.6095
31.8743
31.0731
30.1978
29.2376
28.1817
27.0228
25.7618
24.4107
22.9947
21.5488
20.1131
18.7239
17.4082
16.181
15.0461
13.9989
13.0291
12.1245
11.2723
10.461
9.68053
8.92289
8.18173
7.45223
6.73082
6.01493
5.30272
4.59291
3.88465
3.17734
2.47062
1.76426
1.05815
0.352272
35.1033
34.765
34.3321
33.8122
33.2153
32.5481
31.8131
31.0078
30.1263
29.1604
28.1021
26.9472
25.6984
24.3682
22.9794
21.5631
20.1543
18.7853
17.4811
16.257
15.1185
14.0631
13.0831
12.1678
11.3057
10.4858
9.69844
8.93543
8.19025
7.45784
6.73439
6.01711
5.30398
4.59358
3.88496
3.17744
2.47062
1.76422
1.05812
0.352262
34.937
34.6505
34.2518
33.754
33.1702
32.5096
31.7762
30.9693
30.0843
29.1148
28.0549
26.902
25.6603
24.3425
22.97
21.5715
20.1789
18.8221
17.5249
16.3025
15.1615
14.101
13.1145
12.1926
11.3244
10.4994
9.70795
8.94181
8.19435
7.46035
6.73582
6.01783
5.30427
4.59362
3.88487
3.1773
2.47047
1.76411
1.05806
0.352279
34.8209
34.5803
34.2104
33.7301
33.1565
32.5014
31.7705
30.9641
30.0783
29.1075
28.0465
26.8934
25.6528
24.3376
22.969
21.5749
20.186
18.8316
17.5352
16.3121
15.1695
14.1069
13.1183
12.1945
11.3249
10.4989
9.7068
8.94036
8.19283
7.45889
6.73452
6.01672
5.30335
4.59288
3.88428
3.17684
2.47013
1.76387
1.05794
0.352296
34.7773
34.5751
34.2241
33.7525
33.1832
32.5309
31.8024
30.9984
30.1148
29.1452
28.0837
26.9279
25.6818
24.3585
22.9798
21.5745
20.1749
18.8113
17.5082
16.2812
15.1374
14.0757
13.0897
12.1694
11.3037
10.4815
9.69296
8.92959
8.18461
7.45274
6.72999
6.01344
5.301
4.59123
3.88313
3.17604
2.46957
1.76347
1.05767
0.352217
34.8971
34.6582
34.2831
33.7963
33.2181
32.5617
31.8326
31.0305
30.1501
29.1837
28.1238
26.9664
25.7148
24.3815
22.9895
21.5695
20.1561
18.7819
17.4721
16.2429
15.1003
14.0424
13.0614
12.1465
11.2859
10.4681
9.68321
8.92269
8.17987
7.44957
6.72794
6.01216
5.30024
4.5908
3.88291
3.17596
2.46954
1.76346
1.05762
0.352124
34.9365
34.65
34.2513
33.7535
33.1697
32.509
31.7756
30.9687
30.0837
29.1142
28.0542
26.9014
25.6597
24.3419
22.9694
21.5709
20.1782
18.8213
17.524
16.3015
15.1605
14.1
13.1136
12.1917
11.3237
10.4988
9.70738
8.94133
8.19396
7.46002
6.73557
6.01764
5.30412
4.59352
3.8848
3.17725
2.47045
1.7641
1.05807
0.352282
35.0484
34.7112
34.2798
33.762
33.1663
32.4984
31.7607
30.9514
30.0654
29.0962
28.0375
26.8867
25.6476
24.3325
22.963
21.5677
20.1787
18.8257
17.5323
16.3132
15.1746
14.1154
13.1292
12.2066
11.3372
10.5106
9.71744
8.94963
8.20063
7.46528
6.73963
6.02074
5.30645
4.59524
3.88606
3.17817
2.47111
1.76456
1.05834
0.352313
35.2149
34.8212
34.3517
33.8094
33.1986
32.5225
31.7816
30.9724
30.0888
29.1225
28.0659
26.9145
25.6709
24.3471
22.9657
21.5578
20.1579
18.7978
17.5015
16.2834
15.1485
14.0943
13.1133
12.1956
11.3301
10.5065
9.71543
8.94904
8.20091
7.46603
6.74058
6.02172
5.30737
4.59605
3.88674
3.17873
2.47154
1.76487
1.05853
0.352344
35.4114
34.9603
34.4514
33.8831
33.2567
32.573
31.8305
31.0242
30.1459
29.1852
28.1315
26.9775
25.7233
24.3808
22.9746
21.5401
20.117
18.7407
17.4367
16.2185
15.0891
14.0434
13.0722
12.1637
11.3065
10.4897
9.70391
8.94145
8.19614
7.46321
6.73905
6.02101
5.30716
4.59612
3.88695
3.17898
2.47179
1.76508
1.05867
0.352408
35.6143
35.1098
34.5638
33.9708
33.3299
32.6401
31.898
31.097
30.2269
29.2742
28.2247
27.067
25.7982
24.4291
22.9875
21.5151
20.059
18.66
17.3454
16.1273
15.0054
13.9715
13.0134
12.1178
11.2718
10.4644
9.686
8.92916
8.18797
7.45797
6.73583
6.01914
5.30615
4.59566
3.8868
3.17901
2.47189
1.76521
1.05879
0.352507
35.8032
35.2528
34.6744
34.0601
33.4071
32.7129
31.9731
31.1793
30.3192
29.3765
28.3328
27.1718
25.8864
24.4863
23.0026
21.485
19.9901
18.5652
17.2393
16.0222
14.9097
13.8896
12.9467
12.0655
11.2323
10.4353
9.66529
8.91478
8.17826
7.4516
6.73179
6.01668
5.30474
4.5949
3.88645
3.1789
2.47191
1.76529
1.05889
0.352628
35.9607
35.3743
34.7703
34.1392
33.477
32.7804
32.0438
31.2578
30.4084
29.4763
28.4394
27.2764
25.9755
24.5446
23.018
21.4539
19.9197
18.4697
17.1339
15.9192
14.8169
13.8109
12.8828
12.0157
11.1946
10.4077
9.64551
8.90099
8.16889
7.4454
6.72781
6.01421
5.30328
4.59409
3.88605
3.17873
2.47189
1.76533
1.05898
0.352748
36.0736
35.4623
34.8407
34.1982
33.53
32.8322
32.0987
31.3195
30.4789
29.5561
28.5256
27.3622
26.0497
24.5939
23.031
21.4276
19.8606
18.3907
17.048
15.8364
14.7431
13.7487
12.8328
11.9767
11.1653
10.3862
9.63011
8.89024
8.16157
7.44055
6.72468
6.01226
5.30211
4.59343
3.88571
3.17859
2.47185
1.76536
1.05904
0.352844
36.1325
35.5085
34.8779
34.2296
33.5584
32.8603
32.1287
31.3533
30.518
29.6006
28.5741
27.4109
26.0924
24.6226
23.0387
21.4122
19.8263
18.3454
16.9995
15.7901
14.7022
13.7145
12.8053
11.9555
11.1493
10.3744
9.62173
8.8844
8.15759
7.4379
6.72297
6.01119
5.30147
4.59307
3.88552
3.1785
2.47183
1.76537
1.05908
0.352897
36.1325
35.5086
34.878
34.2296
33.5585
32.8603
32.1288
31.3534
30.518
29.6006
28.5741
27.4109
26.0924
24.6225
23.0387
21.4123
19.8264
18.3455
16.9996
15.7902
14.7023
13.7146
12.8054
11.9556
11.1493
10.3745
9.62179
8.88445
8.15764
7.43794
6.723
6.01121
5.30148
4.59308
3.88553
3.17851
2.47183
1.76538
1.05908
0.352897
36.0738
35.4625
34.8408
34.1983
33.5301
32.8323
32.0989
31.3196
30.4791
29.5563
28.5257
27.3622
26.0497
24.5939
23.0311
21.4277
19.8608
18.3909
17.0483
15.8367
14.7435
13.7491
12.8331
11.977
11.1655
10.3864
9.6303
8.8904
8.1617
7.44065
6.72477
6.01233
5.30216
4.59347
3.88574
3.17861
2.47186
1.76537
1.05904
0.352842
35.961
35.3745
34.7705
34.1394
33.4773
32.7807
32.0441
31.2581
30.4086
29.4766
28.4396
27.2766
25.9756
24.5447
23.0181
21.4541
19.92
18.4701
17.1344
15.9197
14.8175
13.8114
12.8834
12.0161
11.195
10.408
9.64581
8.90125
8.1691
7.44558
6.72795
6.01432
5.30336
4.59416
3.88609
3.17877
2.47191
1.76535
1.05898
0.352744
35.8035
35.2531
34.6747
34.0604
33.4074
32.7133
31.9734
31.1797
30.3196
29.3769
28.3332
27.1721
25.8866
24.4865
23.0029
21.4853
19.9905
18.5657
17.2399
16.0229
14.9104
13.8903
12.9473
12.0661
11.2328
10.4358
9.66569
8.91512
8.17854
7.45183
6.73198
6.01682
5.30485
4.59499
3.88651
3.17894
2.47194
1.7653
1.05889
0.352623
35.6147
35.1102
34.5641
33.9712
33.3303
32.6405
31.8984
31.0975
30.2274
29.2747
28.2252
27.0675
25.7985
24.4294
22.9879
21.5155
20.0595
18.6606
17.3461
16.1281
15.0062
13.9723
13.0141
12.1184
11.2724
10.4649
9.68647
8.92956
8.18831
7.45824
6.73605
6.01931
5.30628
4.59575
3.88687
3.17906
2.47193
1.76523
1.05879
0.352501
35.4119
34.9607
34.4518
33.8836
33.2571
32.5735
31.831
31.0247
30.1465
29.1858
28.1321
26.978
25.7238
24.3812
22.9751
21.5407
20.1176
18.7414
17.4374
16.2194
15.0899
14.0443
13.073
12.1645
11.3072
10.4903
9.70444
8.94189
8.19651
7.46351
6.73929
6.0212
5.3073
4.59622
3.88702
3.17903
2.47182
1.7651
1.05867
0.352401
35.2154
34.8216
34.3522
33.8098
33.199
32.523
31.7821
30.973
30.0894
29.1231
28.0665
26.9151
25.6714
24.3476
22.9663
21.5584
20.1586
18.7986
17.5024
16.2843
15.1495
14.0952
13.1142
12.1964
11.3308
10.5071
9.71599
8.94951
8.2013
7.46635
6.74083
6.02191
5.30751
4.59616
3.88682
3.17878
2.47157
1.76489
1.05852
0.352337
35.0489
34.7117
34.2803
33.7625
33.1668
32.4989
31.7612
30.952
30.0661
29.0968
28.0381
26.8873
25.6481
24.333
22.9636
21.5684
20.1794
18.8266
17.5332
16.3142
15.1756
14.1164
13.1301
12.2075
11.338
10.5113
9.71801
8.95011
8.20102
7.4656
6.73988
6.02092
5.30659
4.59534
3.88613
3.17821
2.47113
1.76457
1.05834
0.352305
34.937
34.6505
34.2518
33.754
33.1702
32.5096
31.7762
30.9693
30.0843
29.1148
28.0548
26.902
25.6603
24.3425
22.97
21.5716
20.179
18.8222
17.5249
16.3025
15.1615
14.101
13.1145
12.1926
11.3244
10.4994
9.70793
8.9418
8.19433
7.46033
6.7358
6.01782
5.30425
4.59361
3.88485
3.17729
2.47046
1.7641
1.05806
0.352273
34.8976
34.6587
34.2836
33.7967
33.2186
32.5622
31.8332
31.0311
30.1507
29.1843
28.1244
26.967
25.7154
24.3821
22.9901
21.5702
20.1569
18.7827
17.4731
16.2439
15.1013
14.0433
13.0623
12.1473
11.2866
10.4688
9.68373
8.92313
8.18022
7.44984
6.72814
6.01231
5.30035
4.59088
3.88296
3.17598
2.46954
1.76345
1.05761
0.35211
35.0603
34.7793
34.3743
33.8679
33.2785
32.6176
31.8894
31.0917
30.2177
29.2572
28.2
27.0395
25.7769
24.4247
23.0075
21.5599
20.121
18.727
17.4054
16.1721
15.0321
13.9811
13.0094
12.1044
11.2531
10.4435
9.66523
8.90993
8.17104
7.44362
6.72403
6.00967
5.29871
4.58991
3.88241
3.17569
2.46941
1.76337
1.05754
0.352037
35.1028
34.7645
34.3316
33.8117
33.2148
32.5476
31.8125
31.0072
30.1257
29.1598
28.1015
26.9466
25.6978
24.3676
22.9788
21.5624
20.1535
18.7845
17.4803
16.2562
15.1176
14.0622
13.0822
12.167
11.3049
10.4852
9.69789
8.93496
8.18986
7.45752
6.73414
6.01691
5.30383
4.59348
3.88488
3.17739
2.47059
1.76421
1.05812
0.352264
35.2149
34.8212
34.3517
33.8094
33.1985
32.5225
31.7816
30.9724
30.0888
29.1225
28.0659
26.9145
25.6708
24.347
22.9657
21.5578
20.1579
18.7978
17.5015
16.2835
15.1486
14.0943
13.1134
12.1956
11.3301
10.5065
9.71544
8.94905
8.20091
7.46604
6.74059
6.02172
5.30737
4.59605