# vtk DataFile Version 2.0
I need something to put here
ASCII

DATASET STRUCTURED_GRID
DIMENSIONS 41 21 21
POINTS 18081 float
0.000000 0.000000 0.000000
0.100000 0.000000 0.000000
0.200000 0.000000 0.000000
0.300000 0.000000 0.000000
0.400000 0.000000 0.000000
0.500000 0.000000 0.000000
0.600000 0.000000 0.000000
0.700000 0.000000 0.000000
0.800000 0.000000 0.000000
0.900000 0.000000 0.000000
1.000000 0.000000 0.000000
1.100000 0.000000 0.000000
1.200000 0.000000 0.000000
1.300000 0.000000 0.000000
1.400000 0.000000 0.000000
1.500000 0.000000 0.000000
1.600000 0.000000 0.000000
1.700000 0.000000 0.000000
1.800000 0.000000 0.000000
1.900000 0.000000 0.000000
2.000000 0.000000 0.000000
2.100000 0.000000 0.000000
2.200000 0.000000 0.000000
2.300000 0.000000 0.000000
2.400000 0.000000 0.000000
2.500000 0.000000 0.000000
2.600000 0.000000 0.000000
2.700000 0.000000 0.000000
2.800000 0.000000 0.000000
2.900000 0.000000 0.000000
3.000000 0.000000 0.000000
3.100000 0.000000 0.000000
3.200000 0.000000 0.000000
3.300000 0.000000 0.000000
3.400000 0.000000 0.000000
3.500000 0.000000 0.000000
3.600000 0.000000 0.000000
3.700000 0.000000 0.000000
3.800000 0.000000 0.000000
3.900000 0.000000 0.000000
4.000000 0.000000 0.000000
0.000000 0.100000 0.000000
0.100000 0.100000 0.000000
0.200000 0.100000 0.000000
0.300000 0.100000 0.000000
0.400000 0.100000 0.000000
0.500000 0.100000 0.000000
0.600000 0.100000 0.000000
0.700000 0.100000 0.000000
0.800000 0.100000 0.000000
0.900000 0.100000 0.000000
1.000000 0.100000 0.000000
1.100000 0.100000 0.000000
1.200000 0.100000 0.000000
1.300000 0.100000 0.000000
1.400000 0.100000 0.000000
1.500000 0.100000 0.000000
1.600000 0.100000 0.000000
1.700000 0.100000 0.000000
1.800000 0.100000 0.000000
1.900000 0.100000 0.000000
2.000000 0.100000 0.000000
2.100000 0.100000 0.000000
2.200000 0.100000 0.000000
2.300000 0.100000 0.000000
2.400000 0.100000 0.000000
2.500000 0.100000 0.000000
2.600000 0.100000 0.000000
2.700000 0.100000 0.000000
2.800000 0.100000 0.000000
2.900000 0.100000 0.000000
3.000000 0.100000 0.000000
3.100000 0.100000 0.000000
3.200000 0.100000 0.000000
3.300000 0.100000 0.000000
3.400000 0.100000 0.000000
3.500000 0.100000 0.000000
3.600000 0.100000 0.000000
3.700000 0.100000 0.000000
3.800000 0.100000 0.000000
3.900000 0.100000 0.000000
4.000000 0.100000 0.000000
0.000000 0.200000 0.000000
0.100000 0.200000 0.000000
0.200000 0.200000 0.000000
0.300000 0.200000 0.000000
0.400000 0.200000 0.000000
0.500000 0.200000 0.000000
0.600000 0.200000 0.000000
0.700000 0.200000 0.000000
0.800000 0.200000 0.000000
0.900000 0.200000 0.000000
1.000000 0.200000 0.000000
1.100000 0.200000 0.000000
1.200000 0.200000 0.000000
1.300000 0.200000 0.000000
1.400000 0.200000 0.000000
1.500000 0.200000 0.000000
1.600000 0.200000 0.000000
1.700000 0.200000 0.000000
1.800000 0.200000 0.000000
1.900000 0.200000 0.000000
2.000000 0.200000 0.000000
2.100000 0.200000 0.000000
2.200000 0.200000 0.000000
2.300000 0.200000 0.000000
2.400000 0.200000 0.000000
2.500000 0.200000 0.000000
2.600000 0.200000 0.000000
2.700000 0.200000 0.000000
2.800000 0.200000 0.000000
2.900000 0.200000 0.000000
3.000000 0.200000 0.000000
3.100000 0.200000 0.000000
3.200000 0.200000 0.000000
3.300000 0.200000 0.000000
3.400000 0.200000 0.000000
3.500000 0.200000 0.000000
3.600000 0.200000 0.000000
3.700000 0.200000 0.000000
3.800000 0.200000 0.000000
3.900000 0.200000 0.000000
4.000000 0.200000 0.000000
0.000000 0.300000 0.000000
0.100000 0.300000 0.000000
0.200000 0.300000 0.000000
0.300000 0.300000 0.000000
0.400000 0.300000 0.000000
0.500000 0.300000 0.000000
0.600000 0.300000 0.000000
0.700000 0.300000 0.000000
0.800000 0.300000 0.000000
0.900000 0.300000 0.000000
1.000000 0.300000 0.000000
1.100000 0.300000 0.000000
1.200000 0.300000 0.000000
1.300000 0.300000 0.000000
1.400000 0.300000 0.000000
1.500000 0.300000 0.000000
1.600000 0.300000 0.000000
1.700000 0.300000 0.000000
1.800000 0.300000 0.000000
1.900000 0.300000 0.000000
2.000000 0.300000 0.000000
2.100000 0.300000 0.000000
2.200000 0.300000 0.000000
2.300000 0.300000 0.000000
2.400000 0.300000 0.000000
2.500000 0.300000 0.000000
2.600000 0.300000 0.000000
2.700000 0.300000 0.000000
2.800000 0.300000 0.000000
2.900000 0.300000 0.000000
3.000000 0.300000 0.000000
3.100000 0.300000 0.000000
3.200000 0.300000 0.000000
3.300000 0.300000 0.000000
3.400000 0.300000 0.000000
3.500000 0.300000 0.000000
3.600000 0.300000 0.000000
3.700000 0.300000 0.000000
3.800000 0.300000 0.000000
3.900000 0.300000 0.000000
4.000000 0.300000 0.000000
0.000000 0.400000 0.000000
0.100000 0.400000 0.000000
0.200000 0.400000 0.000000
0.300000 0.400000 0.000000
0.400000 0.400000 0.000000
0.500000 0.400000 0.000000
0.600000 0.400000 0.000000
0.700000 0.400000 0.000000
0.800000 0.400000 0.000000
0.900000 0.400000 0.000000
1.000000 0.400000 0.000000
1.100000 0.400000 0.000000
1.200000 0.400000 0.000000
1.300000 0.400000 0.000000
1.400000 0.400000 0.000000
1.500000 0.400000 0.000000
1.600000 0.400000 0.000000
1.700000 0.400000 0.000000
1.800000 0.400000 0.000000
1.900000 0.400000 0.000000
2.000000 0.400000 0.000000
2.100000 0.400000 0.000000
2.200000 0.400000 0.000000
2.300000 0.400000 0.000000
2.400000 0.400000 0.000000
2.500000 0.400000 0.000000
2.600000 0.400000 0.000000
2.700000 0.400000 0.000000
2.800000 0.400000 0.000000
2.900000 0.400000 0.000000
3.000000 0.400000 0.000000
3.100000 0.400000 0.000000
3.200000 0.400000 0.000000
3.300000 0.400000 0.000000
3.400000 0.400000 0.000000
3.500000 0.400000 0.000000
3.600000 0.400000 0.000000
3.700000 0.400000 0.000000
3.800000 0.400000 0.000000
3.900000 0.400000 0.000000
4.000000 0.400000 0.000000
0.000000 0.500000 0.000000
0.100000 0.500000 0.000000
0.200000 0.500000 0.000000
0.300000 0.500000 0.000000
0.400000 0.500000 0.000000
0.500000 0.500000 0.000000
0.600000 0.500000 0.000000
0.700000 0.500000 0.000000
0.800000 0.500000 0.000000
0.900000 0.500000 0.000000
1.000000 0.500000 0.000000
1.100000 0.500000 0.000000
1.200000 0.500000 0.000000
1.300000 0.500000 0.000000
1.400000 0.500000 0.000000
1.500000 0.500000 0.000000
1.600000 0.500000 0.000000
1.700000 0.500000 0.000000
1.800000 0.500000 0.000000
1.900000 0.500000 0.000000
2.000000 0.500000 0.000000
2.100000 0.500000 0.000000
2.200000 0.500000 0.000000
2.300000 0.500000 0.000000
2.400000 0.500000 0.000000
2.500000 0.500000 0.000000
2.600000 0.500000 0.000000
2.700000 0.500000 0.000000
2.800000 0.500000 0.000000
2.900000 0.500000 0.000000
3.000000 0.500000 0.000000
3.100000 0.500000 0.000000
3.200000 0.500000 0.000000
3.300000 0.500000 0.000000
3.400000 0.500000 0.000000
3.500000 0.500000 0.000000
3.600000 0.500000 0.000000
3.700000 0.500000 0.000000
3.800000 0.500000 0.000000
3.900000 0.500000 0.000000
4.000000 0.500000 0.000000
0.000000 0.600000 0.000000
0.100000 0.600000 0.000000
0.200000 0.600000 0.000000
0.300000 0.600000 0.000000
0.400000 0.600000 0.000000
0.500000 0.600000 0.000000
0.600000 0.600000 0.000000
0.700000 0.600000 0.000000
0.800000 0.600000 0.000000
0.900000 0.600000 0.000000
1.000000 0.600000 0.000000
1.100000 0.600000 0.000000
1.200000 0.600000 0.000000
1.300000 0.600000 0.000000
1.400000 0.600000 0.000000
1.500000 0.600000 0.000000
1.600000 0.600000 0.000000
1.700000 0.600000 0.000000
1.800000 0.600000 0.000000
1.900000 0.600000 0.000000
2.000000 0.600000 0.000000
2.100000 0.600000 0.000000
2.200000 0.600000 0.000000
2.300000 0.600000 0.000000
2.400000 0.600000 0.000000
2.500000 0.600000 0.000000
2.600000 0.600000 0.000000
2.700000 0.600000 0.000000
2.800000 0.600000 0.000000
2.900000 0.600000 0.000000
3.000000 0.600000 0.000000
3.100000 0.600000 0.000000
3.200000 0.600000 0.000000
3.300000 0.600000 0.000000
3.400000 0.600000 0.000000
3.500000 0.600000 0.000000
3.600000 0.600000 0.000000
3.700000 0.600000 0.000000
3.800000 0.600000 0.000000
3.900000 0.600000 0.000000
4.000000 0.600000 0.000000
0.000000 0.700000 0.000000
0.100000 0.700000 0.000000
0.200000 0.700000 0.000000
0.300000 0.700000 0.000000
0.400000 0.700000 0.000000
0.500000 0.700000 0.000000
0.600000 0.700000 0.000000
0.700000 0.700000 0.000000
0.800000 0.700000 0.000000
0.900000 0.700000 0.000000
1.000000 0.700000 0.000000
1.100000 0.700000 0.000000
1.200000 0.700000 0.000000
1.300000 0.700000 0.000000
1.400000 0.700000 0.000000
1.500000 0.700000 0.000000
1.600000 0.700000 0.000000
1.700000 0.700000 0.000000
1.800000 0.700000 0.000000
1.900000 0.700000 0.000000
2.000000 0.700000 0.000000
2.100000 0.700000 0.000000
2.200000 0.700000 0.000000
2.300000 0.700000 0.000000
2.400000 0.700000 0.000000
2.500000 0.700000 0.000000
2.600000 0.700000 0.000000
2.700000 0.700000 0.000000
2.800000 0.700000 0.000000
2.900000 0.700000 0.000000
3.000000 0.700000 0.000000
3.100000 0.700000 0.000000
3.200000 0.700000 0.000000
3.300000 0.700000 0.000000
3.400000 0.700000 0.000000
3.500000 0.700000 0.000000
3.600000 0.700000 0.000000
3.700000 0.700000 0.000000
3.800000 0.700000 0.000000
3.900000 0.700000 0.000000
4.000000 0.700000 0.000000
0.000000 0.800000 0.000000
0.100000 0.800000 0.000000
0.200000 0.800000 0.000000
0.300000 0.800000 0.000000
0.400000 0.800000 0.000000
0.500000 0.800000 0.000000
0.600000 0.800000 0.000000
0.700000 0.800000 0.000000
0.800000 0.800000 0.000000
0.900000 0.800000 0.000000
1.000000 0.800000 0.000000
1.100000 0.800000 0.000000
1.200000 0.800000 0.000000
1.300000 0.800000 0.000000
1.400000 0.800000 0.000000
1.500000 0.800000 0.000000
1.600000 0.800000 0.000000
1.700000 0.800000 0.000000
1.800000 0.800000 0.000000
1.900000 0.800000 0.000000
2.000000 0.800000 0.000000
2.100000 0.800000 0.000000
2.200000 0.800000 0.000000
2.300000 0.800000 0.000000
2.400000 0.800000 0.000000
2.500000 0.800000 0.000000
2.600000 0.800000 0.000000
2.700000 0.800000 0.000000
2.800000 0.800000 0.000000
2.900000 0.800000 0.000000
3.000000 0.800000 0.000000
3.100000 0.800000 0.000000
3.200000 0.800000 0.000000
3.300000 0.800000 0.000000
3.400000 0.800000 0.000000
3.500000 0.800000 0.000000
3.600000 0.800000 0.000000
[...]
CELL_DATA 16000
SCALARS pressure float 1
LOOKUP_TABLE default
38.2946
38.1212
37.7831
37.3082
36.7176
36.0231
35.2281
34.3296
33.321
32.1953
30.9487
29.5844
28.1146
26.5603
24.9499
23.3157
21.6914
20.1085
18.5941
17.1686
15.844
14.6238
13.5038
12.4745
11.523
10.6353
9.79816
8.99968
8.22995
7.48106
6.74688
6.02287
5.3057
4.59304
3.88326
3.17528
2.46841
1.76225
1.05666
0.351742
38.3486
38.1508
37.7993
37.317
36.7224
36.026
35.2304
34.3322
33.3243
32.1992
30.9529
29.5884
28.1176
26.562
24.9501
23.3144
21.6888
20.1049
18.59
17.1643
15.8401
14.6207
13.5017
12.4733
11.5226
10.6355
9.79874
9.00047
8.23082
7.4819
6.74765
6.02353
5.30625
4.59349
3.88361
3.17555
2.46861
1.76239
1.05671
0.351656
38.4697
38.2372
37.8633
37.3674
36.7657
36.0672
35.2729
34.3781
33.374
32.2512
31.0039
29.634
28.1536
26.5851
24.9584
23.3078
21.6682
20.0726
18.549
17.1187
15.7938
14.5771
13.4633
12.4412
11.497
10.6159
9.78425
8.9901
8.22362
7.47706
6.74449
6.02155
5.30506
4.59281
3.88326
3.17539
2.46854
1.76232
1.05659
0.351477
38.6384
38.3653
37.9637
37.4509
36.8411
36.1414
35.3514
34.4637
33.4669
32.3482
31.0988
29.7186
28.2198
26.6268
24.9726
23.294
21.6285
20.0109
18.4713
17.0323
15.7063
14.4949
13.3907
12.3804
11.4483
10.5783
9.75622
8.96981
8.20933
7.46724
6.73793
6.01727
5.30236
4.59116
3.8823
3.17485
2.46823
1.76212
1.05642
0.351316
38.8343
38.5201
38.0893
37.5587
36.9414
36.2427
35.4602
34.5837
33.5979
32.4855
31.2331
29.838
28.3126
26.6845
24.9909
23.2725
21.5701
19.9214
18.3592
16.9082
15.5811
14.3778
13.2877
12.2945
11.3796
10.5255
9.71687
8.9413
8.1892
7.45338
6.7286
6.01116
5.29846
4.58875
3.88085
3.17401
2.46776
1.76185
1.05624
0.351207
39.0369
38.685
38.2267
37.6797
37.0565
36.3613
35.5894
34.7276
33.7561
32.6522
31.3968
29.9835
28.4251
26.7536
25.0115
23.2444
21.497
19.8104
18.2208
16.7556
15.428
14.2354
13.1633
12.1912
11.2975
10.4625
9.67005
8.90745
8.16533
7.43694
6.71754
6.00389
5.2938
4.58585
3.87911
3.173
2.4672
1.76154
1.05608
0.351155
39.2268
38.8431
38.3611
37.8005
37.1737
36.4838
35.7245
34.8795
33.9245
32.8305
31.5725
30.1399
28.5459
26.8273
25.0328
23.2131
21.4171
19.6898
18.0708
16.591
15.2637
14.0834
13.0313
12.0822
11.2112
10.3966
9.62124
8.87225
8.14056
7.4199
6.70608
5.99635
5.28897
4.58284
3.87729
3.17195
2.46662
1.76125
1.05595
0.35115
39.3866
38.9783
38.4779
37.9071
37.2784
36.5947
35.848
35.0195
34.0806
32.9969
31.7373
30.287
28.6595
26.8966
25.0526
23.1831
21.3415
19.5759
17.9297
16.4366
15.1103
13.9423
12.9092
11.9819
11.1322
10.3365
9.57682
8.84029
8.11811
7.40448
6.69572
5.98955
5.28461
4.58012
3.87565
3.171
2.46611
1.761
1.05587
0.351172
39.5019
39.0768
38.564
37.9865
37.3573
36.679
35.9426
35.1273
34.2014
33.1261
31.8657
30.402
28.7487
26.9511
25.0683
23.1596
21.2821
19.4866
17.8194
16.3164
14.9913
13.8332
12.8152
11.9049
11.0717
10.2906
9.54299
8.81601
8.10108
7.39279
6.68787
5.9844
5.28131
4.57806
3.87441
3.17029
2.46572
1.76082
1.05582
0.351201
39.5624
39.1288
38.6097
38.0289
37.3998
36.7245
35.9938
35.1859
34.2673
33.1968
31.9361
30.4652
28.7979
26.9814
25.0771
23.1467
21.2493
19.4375
17.7589
16.2506
14.9263
13.7737
12.7641
11.8632
11.0389
10.2658
9.52472
8.8029
8.09189
7.3865
6.68365
5.98162
5.27953
4.57695
3.87374
3.16991
2.46552
1.76073
1.05579
0.35122
39.5625
39.1289
38.6098
38.029
37.3999
36.7246
35.9939
35.186
34.2674
33.1969
31.9362
30.4654
28.798
26.9815
25.0771
23.1468
21.2494
19.4375
17.7589
16.2507
14.9264
13.7738
12.7642
11.8632
11.0389
10.2657
9.52471
8.80289
8.09188
7.38649
6.68364
5.98162
5.27952
4.57695
3.87374
3.1699
2.46552
1.76072
1.05579
0.351219
39.5023
39.0772
38.5643
37.9868
37.3577
36.6793
35.9429
35.1276
34.2017
33.1265
31.866
30.4023
28.749
26.9514
25.0685
23.1598
21.2823
19.4868
17.8196
16.3166
14.9914
13.8333
12.8153
11.905
11.0717
10.2906
9.54296
8.81598
8.10105
7.39277
6.68785
5.98438
5.28129
4.57805
3.8744
3.17028
2.46572
1.76082
1.05581
0.351197
39.3871
38.9788
38.4784
37.9076
37.279
36.5953
35.8486
35.0202
34.0813
32.9976
31.738
30.2876
28.6601
26.8971
25.0531
23.1835
21.3418
19.5761
17.9299
16.4368
15.1104
13.9424
12.9092
11.9819
11.1321
10.3364
9.57675
8.84023
8.11805
7.40443
6.69568
5.98951
5.28458
4.58009
3.87564
3.17099
2.4661
1.76099
1.05586
0.351165
39.2275
38.8438
38.3618
37.8012
37.1744
36.4846
35.7253
34.8804
33.9254
32.8315
31.5736
30.1409
28.5468
26.8281
25.0334
23.2135
21.4175
19.69
18.071
16.5911
15.2637
14.0834
13.0312
12.0821
11.2111
10.3965
9.62114
8.87216
8.14048
7.41983
6.70602
5.9963
5.28893
4.58281
3.87727
3.17194
2.46661
1.76124
1.05595
0.351141
39.0377
38.6859
38.2275
37.6806
37.0575
36.3623
35.5904
34.7288
33.7574
32.6535
31.3981
29.9848
28.4263
26.7546
25.0123
23.2449
21.4973
19.8105
18.2208
16.7555
15.4279
14.2352
13.1631
12.191
11.2973
10.4624
9.6699
8.90732
8.16522
7.43685
6.71746
6.00383
5.29375
4.58581
3.87908
3.17298
2.46719
1.76153
1.05607
0.351145
38.8353
38.5211
38.0903
37.5597
36.9424
36.2439
35.4614
34.5851
33.5994
32.4871
31.2347
29.8396
28.314
26.6856
24.9918
23.273
21.5704
19.9215
18.3591
16.908
15.5808
14.3775
13.2874
12.2942
11.3794
10.5253
9.71666
8.94113
8.18906
7.45327
6.72851
6.01109
5.2984
4.58871
3.88082
3.17399
2.46775
1.76184
1.05623
0.351196
38.6395
38.3664
37.9648
37.452
36.8423
36.1427
35.3528
34.4653
33.4685
32.3499
31.1006
29.7203
28.2213
26.6281
24.9736
23.2946
21.6288
20.011
18.4712
17.032
15.7059
14.4944
13.3902
12.38
11.4479
10.578
9.75598
8.9696
8.20916
7.46711
6.73782
6.01719
5.3023
4.59112
3.88226
3.17482
2.46822
1.76211
1.05641
0.351305
38.4708
38.2383
37.8644
37.3686
36.767
36.0685
35.2744
34.3798
33.3757
32.253
31.0057
29.6358
28.1552
26.5864
24.9594
23.3084
21.6685
20.0726
18.5488
17.1183
15.7933
14.5766
13.4628
12.4408
11.4966
10.6156
9.78396
8.98987
8.22344
7.47691
6.74438
6.02146
5.30499
4.59276
3.88322
3.17536
2.46852
1.76231
1.05659
0.351468
38.3497
38.152
37.8005
37.3182
36.7237
36.0274
35.2319
34.3339
33.3261
32.201
30.9548
29.5902
28.1193
26.5634
24.9511
23.3151
21.6891
20.1049
18.5897
17.1639
15.8396
14.6201
13.5012
12.4728
11.5222
10.6351
9.79845
9.00023
8.23063
7.48175
6.74753
6.02344
5.30619
4.59344
3.88358
3.17553
2.4686
1.76238
1.0567
0.351651
38.2957
38.1223
37.7842
37.3094
36.7188
36.0244
35.2295
34.3312
33.3228
32.1971
30.9506
29.5862
28.1162
26.5617
24.9509
23.3164
21.6917
20.1085
18.5939
17.1681
15.8434
14.6232
13.5033
12.474
11.5226
10.635
9.79786
8.99944
8.22976
7.48091
6.74677
6.02278
5.30564
4.59299
3.88323
3.17526
2.4684
1.76224
1.05666
0.35174
38.3486
38.1508
37.7993
37.317
36.7224
36.026
35.2304
34.3322
33.3243
32.1992
30.9529
29.5883
28.1176
26.562
24.9501
23.3144
21.6888
20.1049
18.59
17.1643
15.8401
14.6207
13.5017
12.4733
11.5226
10.6355
9.79875
9.00048
8.23082
7.4819
6.74765
6.02353
5.30625
4.59349
3.88361
3.17555
2.46861
1.76239
1.05671
0.351656
38.3877
38.1527
37.7812
37.2886
36.688
35.9873
35.1881
34.2867
33.2767
32.1512
30.907
29.5475
28.0846
26.5392
24.939
23.3157
21.702
20.1287
18.6222
17.2021
15.8806
14.6611
13.5398
12.5077
11.5523
10.6603
9.81887
9.01639
8.24312
7.49123
6.75459
6.02861
5.30992
4.5961
3.88545
3.17685
2.46953
1.76304
1.05716
0.351786
38.5021
38.2231
37.8236
37.3138
36.7034
35.9977
35.1966
34.2954
33.2865
32.1621
30.9181
29.5573
28.0916
26.5425
24.9383
23.311
21.694
20.1182
18.6103
17.1901
15.8697
14.6522
13.5334
12.5037
11.5504
10.66
9.8197
9.01786
8.24489
7.49304
6.75629
6.03012
5.3112
4.59715
3.8863
3.17751
2.47003
1.7634
1.05735
0.351749
38.6722
38.3428
37.9103
37.38
36.7583
36.0481
35.2475
34.3498
33.345
32.223
30.9774
29.6096
28.1316
26.5663
24.9442
23.2991
21.6657
20.0765
18.5589
17.1341
15.8139
14.6007
13.4888
12.4671
11.5218
10.6387
9.80433
9.00723
8.23783
7.48856
6.7536
6.02862
5.31046
4.59688
3.88629
3.17763
2.4702
1.76354
1.05742
0.35171
38.8741
38.4933
38.0265
37.4749
36.8421
36.1292
35.3318
34.4407
33.443
32.3248
31.0762
29.6965
28.198
26.606
24.9543
23.2797
21.6193
20.0074
18.4737
17.0407
15.7205
14.5139
13.4129
12.4042
11.4719
10.6005
9.77619
8.98712
8.22387
7.47915
6.74746
6.02476
5.30814
4.59556
3.8856
3.17732
2.47009
1.76353
1.05743
0.351714
39.0846
38.6559
38.1568
37.5852
36.9431
36.2294
35.4378
34.5563
33.5682
32.4553
31.2032
29.8082
28.2829
26.6565
24.9668
23.2543
21.5592
19.9182
18.3637
16.9204
15.6003
14.4025
13.3157
12.3235
11.4077
10.5514
9.73972
8.96083
8.20544
7.46657
6.73909
6.01935
5.30476
4.59354
3.88446
3.17672
2.46981
1.76342
1.05742
0.351766
39.2825
38.8127
38.2855
37.697
37.0477
36.3352
35.5513
34.6811
33.7043
32.5979
31.3424
29.9308
28.3762
26.7117
24.9803
23.2261
21.4928
19.82
18.2427
16.7883
15.469
14.2812
13.2103
12.2363
11.3385
10.4983
9.70032
8.93238
8.18542
7.45282
6.7299
6.01336
5.30097
4.59122
3.88311
3.17598
2.46944
1.76328
1.05741
0.351853
39.4491
38.947
38.3977
37.7961
37.142
36.4319
35.656
34.7973
33.8318
32.7321
31.4741
30.0473
28.4647
26.7642
24.993
23.1992
21.4298
19.7268
18.1281
16.6636
15.3455
14.1676
13.1119
12.1551
11.2743
10.4492
9.66387
8.90606
8.16688
7.44008
6.72134
6.00776
5.29741
4.58903
3.88181
3.17526
2.46908
1.76314
1.0574
0.351951
39.5694
39.045
38.4805
37.8702
37.2133
36.5057
35.7365
34.887
33.9307
32.8367
31.5771
30.1387
28.5346
26.8059
25.0034
23.1782
21.3802
19.6537
18.0385
16.5664
15.2495
14.0797
13.0359
12.0926
11.2249
10.4115
9.63591
8.88587
8.15266
7.4303
6.71477
6.00345
5.29466
4.58733
3.8808
3.1747
2.4688
1.76302
1.0574
0.352034
39.6323
39.0967
38.5245
37.9098
37.2516
36.5455
35.7801
34.9358
33.9847
32.894
31.6337
30.189
28.5733
26.8291
25.0093
23.1667
21.3529
19.6134
17.9893
16.5132
15.1971
14.0317
12.9946
12.0587
11.198
10.391
9.62075
8.87494
8.14496
7.425
6.7112
6.00111
5.29316
4.5864
3.88025
3.17439
2.46864
1.76296
1.05741
0.352082
39.6324
39.0968
38.5246
37.9099
37.2517
36.5456
35.7803
34.9359
33.9848
32.8941
31.6338
30.1891
28.5734
26.8292
25.0093
23.1667
21.353
19.6135
17.9894
16.5133
15.1972
14.0318
12.9946
12.0587
11.198
10.391
9.62074
8.87492
8.14495
7.42499
6.7112
6.00111
5.29316
4.5864
3.88025
3.17438
2.46864
1.76296
1.05741
0.352081
39.5697
39.0453
38.4808
37.8705
37.2136
36.506
35.7368
34.8873
33.931
32.8371
31.5775
30.139
28.5349
26.8062
25.0036
23.1784
21.3804
19.6539
18.0387
16.5666
15.2496
14.0797
13.036
12.0926
11.2248
10.4114
9.63587
8.88584
8.15263
7.43027
6.71474
6.00343
5.29464
4.58732
3.88079
3.17469
2.46879
1.76302
1.05741
0.352033
39.4496
38.9475
38.3982
37.7966
37.1426
36.4325
35.6566
34.7979
33.8324
32.7328
31.4748
30.0479
28.4653
26.7647
24.9934
23.1996
21.4301
19.7271
18.1284
16.6638
15.3456
14.1677
13.1119
12.1551
11.2742
10.4491
9.66381
8.90599
8.16682
7.44003
6.7213
6.00773
5.29738
4.58901
3.8818
3.17525
2.46908
1.76314
1.05741
0.351949
39.2832
38.8134
38.2861
37.6977
37.0484
36.336
35.5521
34.682
33.7053
32.5989
31.3434
29.9318
28.377
26.7124
24.9808
23.2265
21.4932
19.8203
18.2429
16.7884
15.469
14.2812
13.2102
12.2362
11.3384
10.4982
9.70022
8.93228
8.18533
7.45275
6.72984
6.01331
5.30093
4.59119
3.88309
3.17597
2.46944
1.76328
1.05741
0.351851
39.0855
38.6568
38.1576
37.5861
36.944
36.2304
35.4389
34.5575
33.5694
32.4566
31.2044
29.8094
28.2841
26.6575
24.9676
23.2548
21.5595
19.9184
18.3638
16.9203
15.6002
14.4023
13.3155
12.3233
11.4076
10.5512
9.73957
8.9607
8.20533
7.46647
6.73902
6.01929
5.30472
4.5935
3.88443
3.1767
2.4698
1.76342
1.05742
0.351764
38.8751
38.4942
38.0275
37.4759
36.8432
36.1303
35.333
34.4421
33.4444
32.3263
31.0777
29.698
28.1993
26.6071
24.9552
23.2803
21.6196
20.0075
18.4736
17.0405
15.7202
14.5136
13.4126
12.4039
11.4716
10.6003
9.77599
8.98695
8.22373
7.47904
6.74737
6.02468
5.30808
4.59551
3.88557
3.1773
2.47008
1.76352
1.05743
0.351711
38.6733
38.3438
37.9114
37.3811
36.7594
36.0493
35.2489
34.3512
33.3466
32.2247
30.9791
29.6112
28.133
26.5676
24.9451
23.2997
21.6661
20.0765
18.5588
17.1338
15.8135
14.6003
13.4884
12.4667
11.5215
10.6384
9.80408
9.00703
8.23767
7.48842
6.75349
6.02854
5.3104
4.59683
3.88626
3.17761
2.47018
1.76353
1.05742
0.351707
38.5032
38.2242
37.8247
37.315
36.7046
35.999
35.198
34.297
33.2882
32.1639
30.9199
29.559
28.0932
26.5438
24.9392
23.3117
21.6943
20.1183
18.6101
17.1898
15.8692
14.6517
13.5329
12.5032
11.55
10.6597
9.81942
9.01764
8.24471
7.4929
6.75618
6.03003
5.31114
4.5971
3.88627
3.17749
2.47002
1.76339
1.05735
0.351745
38.3888
38.1538
37.7823
37.2897
36.6892
35.9886
35.1895
34.2883
33.2784
32.153
30.9089
29.5492
28.0862
26.5405
24.9401
23.3164
21.7024
20.1288
18.6219
17.2017
15.8801
14.6606
13.5393
12.5072
11.5518
10.66
9.81857
9.01615
8.24293
7.49108
6.75447
6.02852
5.30985
4.59605
3.88542
3.17682
2.46951
1.76303
1.05716
0.351783
38.3497
38.1519
37.8004
37.3182
36.7237
36.0273
35.2319
34.3338
33.326
32.201
30.9547
29.5901
28.1192
26.5634
24.9511
23.3151
21.6891
20.1049
18.5897
17.1639
15.8396
14.6201
13.5012
12.4729
11.5222
10.6352
9.79845
9.00024
8.23063
7.48175
6.74754
6.02344
5.30619
4.59344
3.88358
3.17553
2.4686
1.76238
1.05671
0.351656
38.4697
38.2372
37.8633
37.3674
36.7657
36.0671
35.2729
34.3781
33.3739
32.2511
31.0038
29.6339
28.1535
26.585
24.9584
23.3077
21.6682
20.0726
18.549
17.1187
15.7939
14.5772
13.4633
12.4413
11.497
10.6159
9.78427
8.99012
8.22363
7.47707
6.7445
6.02155
5.30506
4.59281
3.88326
3.17539
2.46854
1.76232
1.05659
0.351477
38.5021
38.2231
37.8236
37.3138
36.7034
35.9977
35.1966
34.2954
33.2864
32.1621
30.9181
29.5572
28.0916
26.5425
24.9382
23.311
21.694
20.1183
18.6103
17.1902
15.8697
14.6522
13.5334
12.5037
11.5504
10.6601
9.81971
9.01787
8.2449
7.49305
6.7563
6.03012
5.3112
4.59715
3.8863
3.17751
2.47003
1.7634
1.05735
0.351749
38.6093
38.282
37.85
37.3196
36.6965
35.9831
35.1776
34.2743
33.2649
32.1413
30.8987
29.5396
28.0762
26.53
24.9296
23.307
21.695
20.1239
18.6202
17.2037
15.8862
14.6707
13.5527
12.5227
11.5682
10.6761
9.83361
9.02956
8.25447
7.5007
6.7623
6.03475
5.31471
4.59978
3.88825
3.17894
2.47107
1.76413
1.05778
0.351795
38.7778
38.3954
37.926
37.3718
36.7347
36.0145
35.2074
34.3059
33.2998
32.1786
30.9354
29.5712
28.0984
26.5404
24.9278
23.2938
21.6717
20.0926
18.5836
17.1656
15.8503
14.6397
13.528
12.5044
11.5556
10.6681
9.82909
9.02747
8.25397
7.50116
6.76325
6.0359
5.31588
4.60086
3.88919
3.17973
2.4717
1.76459
1.05806
0.351838
38.9835
38.5437
38.0357
37.4569
36.8063
36.0812
35.2758
34.38
33.3806
32.2636
31.0182
29.643
28.1505
26.5681
24.9298
23.2711
21.6267
20.029
18.507
17.0837
15.7708
14.5683
13.4678
12.4562
11.5188
10.6411
9.81007
9.01457
8.24557
7.49594
6.76022
6.0343
5.31518
4.6007
3.88932
3.17999
2.472
1.76486
1.05826
0.351932
39.2014
38.7072
38.1624
37.5606
36.8983
36.1708
35.37
34.4833
33.494
32.3832
31.1352
29.7444
28.2242
26.6077
24.9337
23.2406
21.565
19.9411
18.4003
16.9692
15.6594
14.4679
13.3828
12.3876
11.4657
10.6015
9.78138
8.99444
8.23188
7.48693
6.7545
6.03082
5.31319
4.59966
3.88886
3.17987
2.47205
1.76499
1.05841
0.352082
39.4083
38.8664
38.2894
37.6679
36.9966
36.2689
35.475
34.5997
33.6228
32.5203
31.2701
29.8618
28.3092
26.6533
24.9385
23.2063
21.4951
19.8407
18.2779
16.838
15.5324
14.3542
13.2867
12.3102
11.4056
10.5564
9.74854
8.97118
8.21585
7.47618
6.7475
6.02643
5.31054
4.59815
3.88808
3.17953
2.47196
1.76504
1.05853
0.352267
39.5835
39.0037
38.401
37.7642
37.0865
36.3602
35.5739
34.7105
33.7465
32.653
31.4018
29.9772
28.3928
26.6987
24.944
23.1732
21.4271
19.7432
18.1588
16.711
15.4103
14.2454
13.1952
12.2367
11.3487
10.5136
9.71735
8.94902
8.20049
7.46581
6.74069
6.02209
5.30788
4.59659
3.88723
3.17912
2.47181
1.76504
1.05864
0.352453
39.7103
39.1042
38.4837
37.8366
37.1549
36.4304
35.6507
34.7972
33.8437
32.7578
31.5065
30.0696
28.4609
26.7365
24.9495
23.147
21.3724
19.6651
18.0643
16.6108
15.3144
14.1604
13.1239
12.1794
11.3044
10.4804
9.69311
8.93177
8.18852
7.4577
6.73533
6.01865
5.30575
4.59533
3.88652
3.17876
2.47167
1.76503
1.05871
0.352603
39.7768
39.1572
38.5277
37.8753
37.1919
36.4686
35.6926
34.8446
33.897
32.8155
31.5642
30.1209
28.4992
26.7583
24.9531
23.1324
21.3417
19.6216
18.0122
16.5559
15.262
14.1139
13.085
12.1483
11.2803
10.4623
9.6799
8.92237
8.18198
7.45327
6.7324
6.01677
5.30457
4.59463
3.88613
3.17856
2.47159
1.76502
1.05875
0.352686
39.7769
39.1573
38.5278
37.8754
37.192
36.4687
35.6927
34.8447
33.8971
32.8156
31.5643
30.121
28.4993
26.7584
24.9531
23.1324
21.3418
19.6218
18.0123
16.556
15.262
14.1139
13.085
12.1483
11.2803
10.4623
9.67989
8.92236
8.18197
7.45326
6.73239
6.01676
5.30457
4.59462
3.88613
3.17856
2.47159
1.76502
1.05875
0.352686
39.7106
39.1045
38.484
37.8369
37.1552
36.4307
35.651
34.7975
33.844
32.7581
31.5068
30.0698
28.4611
26.7367
24.9497
23.1472
21.3726
19.6654
18.0646
16.6111
15.3146
14.1605
13.124
12.1795
11.3044
10.4804
9.69308
8.93174
8.18848
7.45767
6.73531
6.01863
5.30573
4.59531
3.88651
3.17875
2.47167
1.76503
1.05871
0.352603
39.584
39.0042
38.4015
37.7647
37.087
36.3607
35.5744
34.7111
33.7471
32.6536
31.4024
29.9777
28.3934
26.6991
24.9444
23.1735
21.4274
19.7436
18.1591
16.7113
15.4105
14.2455
13.1953
12.2366
11.3486
10.5136
9.71728
8.94895
8.20043
7.46576
6.74065
6.02205
5.30785
4.59657
3.88721
3.1791
2.4718
1.76504
1.05864
0.352454
39.409
38.8671
38.29
37.6686
36.9973
36.2696
35.4757
34.6006
33.6237
32.5213
31.2711
29.8627
28.31
26.654
24.9391
23.2067
21.4954
19.841
18.2781
16.8381
15.5325
14.3542
13.2866
12.3101
11.4055
10.5563
9.74843
8.97109
8.21576
7.47611
6.74744
6.02638
5.3105
4.59812
3.88806
3.17951
2.47195
1.76503
1.05853
0.352268
39.2023
38.7081
38.1632
37.5615
36.8992
36.1718
35.371
34.4844
33.4952
32.3845
31.1365
29.7457
28.2254
26.6086
24.9344
23.2411
21.5653
19.9412
18.4003
16.9691
15.6592
14.4678
13.3826
12.3874
11.4655
10.6013
9.78122
8.9943
8.23176
7.48683
6.75442
6.03076
5.31314
4.59962
3.88883
3.17985
2.47204
1.76498
1.05841
0.352084
38.9845
38.5447
38.0367
37.4579
36.8073
36.0824
35.277
34.3813
33.382
32.2651
31.0198
29.6445
28.1519
26.5693
24.9306
23.2716
21.6269
20.029
18.5069
17.0835
15.7705
14.5679
13.4675
12.4559
11.5186
10.6409
9.80986
9.01439
8.24543
7.49583
6.76013
6.03423
5.31513
4.60065
3.88929
3.17997
2.47198
1.76485
1.05826
0.351934
38.7789
38.3964
37.9271
37.3729
36.7358
36.0157
35.2088
34.3074
33.3014
32.1803
30.9371
29.5729
28.0999
26.5417
24.9288
23.2944
21.672
20.0926
18.5834
17.1653
15.8499
14.6393
13.5276
12.504
11.5553
10.6678
9.82884
9.02727
8.2538
7.50102
6.76315
6.03582
5.31582
4.60081
3.88916
3.17971
2.47168
1.76458
1.05806
0.351839
38.6105
38.2831
37.8511
37.3208
36.6977
35.9844
35.179
34.2759
33.2666
32.1431
30.9005
29.5414
28.0777
26.5313
24.9306
23.3077
21.6953
20.1239
18.6199
17.2033
15.8857
14.6701
13.5522
12.5222
11.5678
10.6758
9.83333
9.02933
8.25428
7.50055
6.76218
6.03466
5.31464
4.59973
3.88821
3.17892
2.47105
1.76412
1.05779
0.351796
38.5032
38.2242
37.8247
37.315
36.7046
35.999
35.198
34.297
33.2882
32.164
30.92
29.5591
28.0932
26.5438
24.9393
23.3117
21.6943
20.1182
18.61
17.1897
15.8692
14.6517
13.5329
12.5032
11.55
10.6597
9.81941
9.01763
8.24471
7.4929
6.75618
6.03003
5.31114
4.5971
3.88627
3.17749
2.47002
1.76339
1.05735
0.351749
38.4708
38.2383
37.8644
37.3685
36.7669
36.0684
35.2744
34.3797
33.3757
32.253
31.0058
29.6358
28.1553
26.5864
24.9595
23.3084
21.6685
20.0725
18.5487
17.1182
15.7932
14.5765
13.4627
12.4408
11.4966
10.6156
9.78397
8.98988
8.22345
7.47692
6.74439
6.02147
5.305
4.59277
3.88323
3.17537
2.46852
1.76232
1.0566
0.351479
38.6384
38.3653
37.9637
37.4509
36.8411
36.1414
35.3513
34.4636
33.4667
32.348
31.0986
29.7184
28.2196
26.6267
24.9725
23.294
21.6285
20.0109
18.4714
17.0324
15.7064
14.495
13.3908
12.3805
11.4483
10.5784
9.75627
8.96985
8.20935
7.46726
6.73794
6.01728
5.30237
4.59117
3.8823
3.17485
2.46823
1.76213
1.05642
0.351316
38.6722
38.3428
37.9103
37.38
36.7582
36.0481
35.2475
34.3497
33.3449
32.2229
30.9773
29.6094
28.1315
26.5662
24.9441
23.299
21.6657
20.0765
18.559
17.1342
15.814
14.6008
13.4889
12.4671
11.5219
10.6387
9.80436
9.00726
8.23785
7.48857
6.7536
6.02862
5.31047
4.59688
3.8863
3.17764
2.4702
1.76354
1.05742
0.351711
38.7778
38.3953
37.926
37.3718
36.7347
36.0145
35.2074
34.3059
33.2997
32.1785
30.9353
29.5712
28.0983
26.5404
24.9278
23.2938
21.6717
20.0926
18.5836
17.1657
15.8504
14.6398
13.5281
12.5044
11.5557
10.6681
9.82911
9.02749
8.25398
7.50116
6.76326
6.03591
5.31589
4.60086
3.8892
3.17973
2.4717
1.76459
1.05806
0.351838