# vtk DataFile Version 2.0
I need something to put here
ASCII

DATASET STRUCTURED_GRID
DIMENSIONS 41 21 21
POINTS 18081 float
0.000000 0.000000 0.000000
0.100000 0.000000 0.000000
0.200000 0.000000 0.000000
0.300000 0.000000 0.000000
0.400000 0.000000 0.000000
0.500000 0.000000 0.000000
0.600000 0.000000 0.000000
0.700000 0.000000 0.000000
0.800000 0.000000 0.000000
0.900000 0.000000 0.000000
1.000000 0.000000 0.000000
1.100000 0.000000 0.000000
1.200000 0.000000 0.000000
1.300000 0.000000 0.000000
1.400000 0.000000 0.000000
1.500000 0.000000 0.000000
1.600000 0.000000 0.000000
1.700000 0.000000 0.000000
1.800000 0.000000 0.000000
1.900000 0.000000 0.000000
2.000000 0.000000 0.000000
2.100000 0.000000 0.000000
2.200000 0.000000 0.000000
2.300000 0.000000 0.000000
2.400000 0.000000 0.000000
2.500000 0.000000 0.000000
2.600000 0.000000 0.000000
2.700000 0.000000 0.000000
2.800000 0.000000 0.000000
2.900000 0.000000 0.000000
3.000000 0.000000 0.000000
3.100000 0.000000 0.000000
3.200000 0.000000 0.000000
3.300000 0.000000 0.000000
3.400000 0.000000 0.000000
3.500000 0.000000 0.000000
3.600000 0.000000 0.000000
3.700000 0.000000 0.000000
3.800000 0.000000 0.000000
3.900000 0.000000 0.000000
4.000000 0.000000 0.000000
0.000000 0.100000 0.000000
0.100000 0.100000 0.000000
0.200000 0.100000 0.000000
0.300000 0.100000 0.000000
0.400000 0.100000 0.000000
0.500000 0.100000 0.000000
0.600000 0.100000 0.000000
0.700000 0.100000 0.000000
0.800000 0.100000 0.000000
0.900000 0.100000 0.000000
1.000000 0.100000 0.000000
1.100000 0.100000 0.000000
1.200000 0.100000 0.000000
1.300000 0.100000 0.000000
1.400000 0.100000 0.000000
1.500000 0.100000 0.000000
1.600000 0.100000 0.000000
1.700000 0.100000 0.000000
1.800000 0.100000 0.000000
1.900000 0.100000 0.000000
2.000000 0.100000 0.000000
2.100000 0.100000 0.000000
2.200000 0.100000 0.000000
2.300000 0.100000 0.000000
2.400000 0.100000 0.000000
2.500000 0.100000 0.000000
2.600000 0.100000 0.000000
2.700000 0.100000 0.000000
2.800000 0.100000 0.000000
2.900000 0.100000 0.000000
3.000000 0.100000 0.000000
3.100000 0.100000 0.000000
3.200000 0.100000 0.000000
3.300000 0.100000 0.000000
3.400000 0.100000 0.000000
3.500000 0.100000 0.000000
3.600000 0.100000 0.000000
3.700000 0.100000 0.000000
3.800000 0.100000 0.000000
3.900000 0.100000 0.000000
4.000000 0.100000 0.000000
0.000000 0.200000 0.000000
0.100000 0.200000 0.000000
0.200000 0.200000 0.000000
0.300000 0.200000 0.000000
0.400000 0.200000 0.000000
0.500000 0.200000 0.000000
0.600000 0.200000 0.000000
0.700000 0.200000 0.000000
0.800000 0.200000 0.000000
0.900000 0.200000 0.000000
1.000000 0.200000 0.000000
1.100000 0.200000 0.000000
1.200000 0.200000 0.000000
1.300000 0.200000 0.000000
1.400000 0.200000 0.000000
1.500000 0.200000 0.000000
1.600000 0.200000 0.000000
1.700000 0.200000 0.000000
1.800000 0.200000 0.000000
1.900000 0.200000 0.000000
2.000000 0.200000 0.000000
2.100000 0.200000 0.000000
2.200000 0.200000 0.000000
2.300000 0.200000 0.000000
2.400000 0.200000 0.000000
2.500000 0.200000 0.000000
2.600000 0.200000 0.000000
2.700000 0.200000 0.000000
2.800000 0.200000 0.000000
2.900000 0.200000 0.000000
3.000000 0.200000 0.000000
3.100000 0.200000 0.000000
3.200000 0.200000 0.000000
3.300000 0.200000 0.000000
3.400000 0.200000 0.000000
3.500000 0.200000 0.000000
3.600000 0.200000 0.000000
3.700000 0.200000 0.000000
3.800000 0.200000 0.000000
3.900000 0.200000 0.000000
4.000000 0.200000 0.000000
0.000000 0.300000 0.000000
0.100000 0.300000 0.000000
0.200000 0.300000 0.000000
0.300000 0.300000 0.000000
0.400000 0.300000 0.000000
0.500000 0.300000 0.000000
0.600000 0.300000 0.000000
0.700000 0.300000 0.000000
0.800000 0.300000 0.000000
0.900000 0.300000 0.000000
1.000000 0.300000 0.000000
1.100000 0.300000 0.000000
1.200000 0.300000 0.000000
1.300000 0.300000 0.000000
1.400000 0.300000 0.000000
1.500000 0.300000 0.000000
1.600000 0.300000 0.000000
1.700000 0.300000 0.000000
1.800000 0.300000 0.000000
1.900000 0.300000 0.000000
2.000000 0.300000 0.000000
2.100000 0.300000 0.000000
2.200000 0.300000 0.000000
2.300000 0.300000 0.000000
2.400000 0.300000 0.000000
2.500000 0.300000 0.000000
2.600000 0.300000 0.000000
2.700000 0.300000 0.000000
2.800000 0.300000 0.000000
2.900000 0.300000 0.000000
3.000000 0.300000 0.000000
3.100000 0.300000 0.000000
3.200000 0.300000 0.000000
3.300000 0.300000 0.000000
3.400000 0.300000 0.000000
3.500000 0.300000 0.000000
3.600000 0.300000 0.000000
3.700000 0.300000 0.000000
3.800000 0.300000 0.000000
3.900000 0.300000 0.000000
4.000000 0.300000 0.000000
0.000000 0.400000 0.000000
0.100000 0.400000 0.000000
0.200000 0.400000 0.000000
0.300000 0.400000 0.000000
0.400000 0.400000 0.000000
0.500000 0.400000 0.000000
0.600000 0.400000 0.000000
0.700000 0.400000 0.000000
0.800000 0.400000 0.000000
0.900000 0.400000 0.000000
1.000000 0.400000 0.000000
1.100000 0.400000 0.000000
1.200000 0.400000 0.000000
1.300000 0.400000 0.000000
1.400000 0.400000 0.000000
1.500000 0.400000 0.000000
1.600000 0.400000 0.000000
1.700000 0.400000 0.000000
1.800000 0.400000 0.000000
1.900000 0.400000 0.000000
2.000000 0.400000 0.000000
2.100000 0.400000 0.000000
2.200000 0.400000 0.000000
2.300000 0.400000 0.000000
2.400000 0.400000 0.000000
2.500000 0.400000 0.000000
2.600000 0.400000 0.000000
2.700000 0.400000 0.000000
2.800000 0.400000 0.000000
2.900000 0.400000 0.000000
3.000000 0.400000 0.000000
3.100000 0.400000 0.000000
3.200000 0.400000 0.000000
3.300000 0.400000 0.000000
3.400000 0.400000 0.000000
3.500000 0.400000 0.000000
3.600000 0.400000 0.000000
3.700000 0.400000 0.000000
3.800000 0.400000 0.000000
3.900000 0.400000 0.000000
4.000000 0.400000 0.000000
0.000000 0.500000 0.000000
0.100000 0.500000 0.000000
0.200000 0.500000 0.000000
0.300000 0.500000 0.000000
0.400000 0.500000 0.000000
0.500000 0.500000 0.000000
0.600000 0.500000 0.000000
0.700000 0.500000 0.000000
0.800000 0.500000 0.000000
0.900000 0.500000 0.000000
1.000000 0.500000 0.000000
1.100000 0.500000 0.000000
1.200000 0.500000 0.000000
1.300000 0.500000 0.000000
1.400000 0.500000 0.000000
1.500000 0.500000 0.000000
1.600000 0.500000 0.000000
1.700000 0.500000 0.000000
1.800000 0.500000 0.000000
1.900000 0.500000 0.000000
2.000000 0.500000 0.000000
2.100000 0.500000 0.000000
2.200000 0.500000 0.000000
2.300000 0.500000 0.000000
2.400000 0.500000 0.000000
2.500000 0.500000 0.000000
2.600000 0.500000 0.000000
2.700000 0.500000 0.000000
2.800000 0.500000 0.000000
2.900000 0.500000 0.000000
3.000000 0.500000 0.000000
3.100000 0.500000 0.000000
3.200000 0.500000 0.000000
3.300000 0.500000 0.000000
3.400000 0.500000 0.000000
3.500000 0.500000 0.000000
3.600000 0.500000 0.000000
3.700000 0.500000 0.000000
3.800000 0.500000 0.000000
3.900000 0.500000 0.000000
4.000000 0.500000 0.000000
0.000000 0.600000 0.000000
0.100000 0.600000 0.000000
0.200000 0.600000 0.000000
0.300000 0.600000 0.000000
0.400000 0.600000 0.000000
0.500000 0.600000 0.000000
0.600000 0.600000 0.000000
0.700000 0.600000 0.000000
0.800000 0.600000 0.000000
0.900000 0.600000 0.000000
1.000000 0.600000 0.000000
1.100000 0.600000 0.000000
1.200000 0.600000 0.000000
1.300000 0.600000 0.000000
1.400000 0.600000 0.000000
1.500000 0.600000 0.000000
1.600000 0.600000 0.000000
1.700000 0.600000 0.000000
1.800000 0.600000 0.000000
1.900000 0.600000 0.000000
2.000000 0.600000 0.000000
2.100000 0.600000 0.000000
2.200000 0.600000 0.000000
2.300000 0.600000 0.000000
2.400000 0.600000 0.000000
2.500000 0.600000 0.000000
2.600000 0.600000 0.000000
2.700000 0.600000 0.000000
2.800000 0.600000 0.000000
2.900000 0.600000 0.000000
3.000000 0.600000 0.000000
3.100000 0.600000 0.000000
3.200000 0.600000 0.000000
3.300000 0.600000 0.000000
3.400000 0.600000 0.000000
3.500000 0.600000 0.000000
3.600000 0.600000 0.000000
3.700000 0.600000 0.000000
3.800000 0.600000 0.000000
3.900000 0.600000 0.000000
4.000000 0.600000 0.000000
0.000000 0.700000 0.000000
0.100000 0.700000 0.000000
0.200000 0.700000 0.000000
0.300000 0.700000 0.000000
0.400000 0.700000 0.000000
0.500000 0.700000 0.000000
0.600000 0.700000 0.000000
0.700000 0.700000 0.000000
0.800000 0.700000 0.000000
0.900000 0.700000 0.000000
1.000000 0.700000 0.000000
1.100000 0.700000 0.000000
1.200000 0.700000 0.000000
1.300000 0.700000 0.000000
1.400000 0.700000 0.000000
1.500000 0.700000 0.000000
1.600000 0.700000 0.000000
1.700000 0.700000 0.000000
1.800000 0.700000 0.000000
1.900000 0.700000 0.000000
2.000000 0.700000 0.000000
2.100000 0.700000 0.000000
2.200000 0.700000 0.000000
2.300000 0.700000 0.000000
2.400000 0.700000 0.000000
2.500000 0.700000 0.000000
2.600000 0.700000 0.000000
2.700000 0.700000 0.000000
2.800000 0.700000 0.000000
2.900000 0.700000 0.000000
3.000000 0.700000 0.000000
3.100000 0.700000 0.000000
3.200000 0.700000 0.000000
3.300000 0.700000 0.000000
3.400000 0.700000 0.000000
3.500000 0.700000 0.000000
3.600000 0.700000 0.000000
3.700000 0.700000 0.000000
3.800000 0.700000 0.000000
3.900000 0.700000 0.000000
4.000000 0.700000 0.000000
0.000000 0.800000 0.000000
0.100000 0.800000 0.000000
0.200000 0.800000 0.000000
0.300000 0.800000 0.000000
0.400000 0.800000 0.000000
0.500000 0.800000 0.000000
0.600000 0.800000 0.000000
0.700000 0.800000 0.000000
0.800000 0.800000 0.000000
0.900000 0.800000 0.000000
1.000000 0.800000 0.000000
1.100000 0.800000 0.000000
1.200000 0.800000 0.000000
1.300000 0.800000 0.000000
1.400000 0.800000 0.000000
1.500000 0.800000 0.000000
1.600000 0.800000 0.000000
1.700000 0.800000 0.000000
1.800000 0.800000 0.000000
1.900000 0.800000 0.000000
2.000000 0.800000 0.000000
2.100000 0.800000 0.000000
2.200000 0.800000 0.000000
2.300000 0.800000 0.000000
2.400000 0.800000 0.000000
2.500000 0.800000 0.000000
2.600000 0.800000 0.000000
2.700000 0.800000 0.000000
2.800000 0.800000 0.000000
2.900000 0.800000 0.000000
3.000000 0.800000 0.000000
3.100000 0.800000 0.000000
3.200000 0.800000 0.000000
3.300000 0.800000 0.000000
3.400000 0.800000 0.000000
3.500000 0.800000 0.000000
3.600000 0.800000 0.000000
[...]
CELL_DATA 16000
SCALARS pressure float 1
LOOKUP_TABLE default
36.3959
36.2207
35.8831
35.4139
34.8364
34.1649
33.4048
32.5556
31.6121
30.5681
29.419
28.1656
26.816
25.3872
23.9037
22.3955
20.8948
19.4318
18.0317
16.7123
15.4831
14.3456
13.2948
12.3213
11.4133
10.5586
9.74583
8.96487
8.20745
7.467
6.73848
6.01815
5.30332
4.59208
3.88314
3.17561
2.46894
1.76282
1.05715
0.352002
36.4507
36.2506
35.8994
35.4226
34.8411
34.1675
33.4067
32.5575
31.6146
30.5712
29.4226
28.1692
26.8191
25.3891
23.9042
22.3945
20.8924
19.4285
18.0279
16.7085
15.4798
14.3431
13.2931
12.3204
11.4131
10.5589
9.74642
8.96561
8.20823
7.46773
6.73913
6.01871
5.30378
4.59246
3.88343
3.17583
2.46911
1.76293
1.05719
0.351934
36.5713
36.3356
35.9611
35.4698
34.8803
34.2035
33.443
32.5964
31.6569
30.6162
29.4678
28.211
26.8533
25.412
23.9134
22.3891
20.8735
19.3986
17.9906
16.6678
15.4393
14.3057
13.2606
12.2936
11.3919
10.5428
9.73461
8.95721
8.20243
7.46386
6.73663
6.01715
5.30285
4.59194
3.88317
3.17571
2.46906
1.76289
1.0571
0.351792
36.7373
36.4601
36.0567
35.5472
34.9479
34.2682
33.5101
32.6692
31.7363
30.7004
29.5523
28.2887
26.9165
25.4538
23.9292
22.3777
20.8369
19.3415
17.9197
16.5906
15.3626
14.2349
13.1991
12.2426
11.3515
10.5119
9.71169
8.94071
8.19087
7.45596
6.73137
6.01375
5.30072
4.59065
3.88242
3.1753
2.46883
1.76274
1.05697
0.351665
36.9276
36.6088
36.1751
35.6462
35.0372
34.3561
33.603
32.7711
31.8484
30.8199
29.6722
28.3989
27.0057
25.5121
23.9502
22.3595
20.7825
19.2581
17.817
16.4794
15.2529
14.1341
13.1118
12.1707
11.2945
10.4684
9.67946
8.91749
8.17455
7.44477
6.72388
6.00886
5.29762
4.58875
3.8813
3.17466
2.46847
1.76254
1.05683
0.35158
37.1224
36.7657
36.3035
35.7564
35.1392
34.4586
33.7131
32.8935
31.9841
30.9654
29.8188
28.534
27.1148
25.5828
23.9744
22.3351
20.7135
19.1536
17.6894
16.3422
15.1183
14.0113
13.0061
12.084
11.2262
10.4164
9.64109
8.88989
8.15519
7.4315
6.71499
6.00304
5.29392
4.58646
3.87993
3.17388
2.46805
1.76231
1.05671
0.351542
37.3037
36.915
36.4282
35.8657
35.2425
34.5643
33.8282
33.0228
32.1287
31.1214
29.977
28.6802
27.2331
25.6592
23.9999
22.3072
20.637
19.0387
17.5501
16.1933
14.9733
13.8799
12.8937
11.9924
11.1544
10.362
9.60104
8.86116
8.13507
7.41772
6.70576
5.99701
5.29007
4.58408
3.87851
3.17307
2.46761
1.76209
1.05662
0.351541
37.4553
37.0419
36.5359
35.9617
35.3346
34.6598
33.9335
33.1421
32.2632
31.2676
30.1262
28.8187
27.3455
25.7318
24.0237
22.2799
20.5632
18.9288
17.4176
16.0527
14.8373
13.7574
12.7896
11.9079
11.0885
10.3123
9.56454
8.83506
8.11682
7.40525
6.69742
5.99156
5.28659
4.58192
3.87722
3.17233
2.46721
1.76191
1.05656
0.351563
37.5642
37.134
36.615
36.033
35.4037
34.7323
34.0141
33.2341
32.3675
31.3817
30.2432
28.928
27.4346
25.7896
24.0427
22.2579
20.5044
18.8416
17.3131
15.9424
14.7312
13.6623
12.7092
11.8429
11.038
10.2743
9.53674
8.81521
8.10297
7.39579
6.6911
5.98743
5.28397
4.58029
3.87625
3.17178
2.46692
1.76177
1.05653
0.351589
37.6211
37.1825
36.6569
36.0711
35.4409
34.7715
34.0579
33.2843
32.4246
31.4444
30.3077
28.9885
27.4841
25.8218
24.0533
22.2457
20.4716
18.7932
17.2553
15.8817
14.673
13.6104
12.6653
11.8076
11.0107
10.2537
9.52171
8.8045
8.09551
7.3907
6.68771
5.98521
5.28255
4.57942
3.87572
3.17148
2.46676
1.7617
1.05651
0.351606
37.6212
37.1826
36.657
36.0712
35.441
34.7716
34.058
33.2844
32.4247
31.4445
30.3078
28.9886
27.4842
25.8218
24.0534
22.2458
20.4717
18.7933
17.2554
15.8818
14.673
13.6104
12.6654
11.8076
11.0107
10.2537
9.52172
8.80451
8.09552
7.3907
6.68771
5.98522
5.28255
4.57942
3.87572
3.17148
2.46676
1.7617
1.05651
0.351604
37.5645
37.1343
36.6153
36.0334
35.4041
34.7327
34.0145
33.2345
32.3679
31.3821
30.2435
28.9283
27.4349
25.7898
24.0429
22.2581
20.5046
18.8419
17.3133
15.9427
14.7314
13.6625
12.7093
11.843
11.0381
10.2743
9.53677
8.81524
8.10299
7.3958
6.69111
5.98744
5.28397
4.5803
3.87625
3.17178
2.46692
1.76177
1.05653
0.351586
37.4558
37.0424
36.5364
35.9623
35.3351
34.6604
33.9341
33.1428
32.2639
31.2683
30.1269
28.8194
27.346
25.7323
24.0241
22.2802
20.5636
18.9292
17.4179
16.053
14.8376
13.7576
12.7898
11.908
11.0886
10.3123
9.56459
8.83509
8.11685
7.40526
6.69743
5.99157
5.2866
4.58192
3.87722
3.17233
2.46721
1.7619
1.05656
0.351557
37.3044
36.9157
36.4289
35.8664
35.2432
34.5651
33.8291
33.0237
32.1296
31.1224
29.978
28.6811
27.2339
25.6599
24.0004
22.3076
20.6374
19.0391
17.5504
16.1936
14.9736
13.8801
12.8939
11.9925
11.1545
10.3621
9.60109
8.8612
8.13509
7.41774
6.70577
5.99702
5.29007
4.58408
3.87851
3.17306
2.4676
1.76209
1.05662
0.351534
37.1233
36.7666
36.3043
35.7573
35.1401
34.4596
33.7142
32.8947
31.9853
30.9666
29.8201
28.5352
27.1159
25.5837
23.9752
22.3357
20.714
19.1539
17.6897
16.3424
15.1185
14.0114
13.0062
12.0841
11.2263
10.4165
9.64113
8.88992
8.15521
7.43151
6.715
6.00305
5.29392
4.58646
3.87993
3.17388
2.46804
1.76231
1.05671
0.351534
36.9285
36.6097
36.1761
35.6472
35.0383
34.3572
33.6042
32.7725
31.8498
30.8214
29.6737
28.4004
27.007
25.5132
23.9511
22.3602
20.783
19.2584
17.8173
16.4796
15.253
14.1342
13.1118
12.1707
11.2946
10.4684
9.67949
8.91751
8.17457
7.44478
6.72389
6.00886
5.29762
4.58875
3.88129
3.17466
2.46847
1.76253
1.05682
0.351571
36.7383
36.4611
36.0578
35.5483
34.949
34.2694
33.5114
32.6706
31.7378
30.702
29.5539
28.2902
26.9179
25.4551
23.9302
22.3785
20.8374
19.3419
17.92
16.5907
15.3627
14.2349
13.1991
12.2427
11.3515
10.5119
9.71169
8.94071
8.19087
7.45596
6.73137
6.01374
5.30072
4.59065
3.88242
3.1753
2.46882
1.76274
1.05696
0.351656
36.5724
36.3366
35.9622
35.4709
34.8815
34.2047
33.4444
32.5979
31.6585
30.6179
29.4695
28.2126
26.8548
25.4133
23.9144
22.3899
20.8741
19.399
17.9908
16.6679
15.4393
14.3056
13.2606
12.2936
11.3919
10.5428
9.73459
8.9572
8.20242
7.46385
6.73662
6.01714
5.30285
4.59193
3.88316
3.17571
2.46905
1.76288
1.05709
0.351784
36.4518
36.2517
35.9005
35.4237
34.8423
34.1687
33.4081
32.559
31.6162
30.5729
29.4243
28.1709
26.8206
25.3904
23.9052
22.3953
20.893
19.4288
18.0281
16.7086
15.4798
14.343
13.2931
12.3204
11.413
10.5589
9.74639
8.96558
8.20821
7.46772
6.73912
6.0187
5.30377
4.59245
3.88342
3.17582
2.4691
1.76293
1.05718
0.351928
36.3969
36.2218
35.8842
35.415
34.8376
34.1661
33.4062
32.5571
31.6137
30.5697
29.4207
28.1672
26.8175
25.3885
23.9047
22.3963
20.8954
19.4322
18.0319
16.7124
15.4831
14.3455
13.2947
12.3212
11.4132
10.5586
9.74579
8.96484
8.20743
7.46698
6.73846
6.01814
5.30331
4.59207
3.88313
3.1756
2.46893
1.76282
1.05714
0.351999
36.4507
36.2506
35.8994
35.4226
34.8411
34.1675
33.4067
32.5575
31.6146
30.5712
29.4226
28.1692
26.8191
25.3891
23.9041
22.3945
20.8924
19.4285
18.0279
16.7085
15.4798
14.3431
13.2932
12.3204
11.4131
10.5589
9.74643
8.96561
8.20823
7.46774
6.73913
6.01871
5.30378
4.59246
3.88343
3.17583
2.46911
1.76293
1.05719
0.351934
36.4921
36.2542
35.8835
35.3973
34.8106
34.1335
33.3698
32.5179
31.573
30.5289
29.3816
28.132
26.7884
25.3675
23.8934
22.3953
20.9043
19.4501
18.057
16.7424
15.5156
14.3784
13.3261
12.3498
11.4383
10.5798
9.76327
8.97887
8.21843
7.47544
6.74485
6.02288
5.30678
4.59459
3.88493
3.17688
2.46984
1.76346
1.05755
0.352038
36.6074
36.3245
35.9254
35.4219
34.8252
34.1428
33.3769
32.5248
31.5807
30.5378
29.3911
28.1411
26.7956
25.3715
23.8935
22.3913
20.897
19.4404
18.0462
16.7318
15.5063
14.3711
13.3211
12.3469
11.4371
10.5799
9.76423
8.98029
8.22004
7.47704
6.74633
6.02417
5.30787
4.59548
3.88564
3.17743
2.47026
1.76376
1.05771
0.352009
36.7755
36.4416
36.0088
35.4839
34.875
34.1871
33.4204
32.5708
31.6304
30.5904
29.4437
28.1891
26.834
25.3959
23.9011
22.3814
20.8711
19.4019
17.9996
16.682
15.4578
14.3271
13.2835
12.3165
11.4136
10.5625
9.75183
8.97179
8.21445
7.47353
6.74424
6.02304
5.30734
4.59531
3.88567
3.17756
2.47041
1.76388
1.05777
0.35198
36.9723
36.5867
36.119
35.5717
34.9504
34.2579
33.4926
32.6482
31.7142
30.6788
29.5317
28.2692
26.8979
25.4364
23.9136
22.3649
20.8282
19.338
17.9221
16.5989
15.3763
14.2527
13.2194
12.2639
11.3723
10.5312
9.7289
8.9555
8.20321
7.46601
6.73937
6.02
5.30552
4.59429
3.88515
3.17734
2.47035
1.76389
1.05779
0.351986
37.1752
36.742
36.2414
35.673
35.0405
34.3451
33.5835
32.7467
31.8216
30.7925
29.6452
28.3726
26.9803
25.4884
23.9293
22.343
20.772
19.2549
17.8215
16.4913
15.2712
14.1569
13.1371
12.1964
11.3191
10.4908
9.69908
8.93413
8.18831
7.45588
6.73268
6.01571
5.30287
4.59272
3.88427
3.17689
2.47015
1.76382
1.05779
0.352031
37.3644
36.8905
36.3613
35.7748
35.1334
34.437
33.6806
32.8532
31.9386
30.9171
29.7702
28.487
27.0715
25.5458
23.9463
22.3179
20.709
19.1622
17.71
16.3727
15.1559
14.0524
13.0475
12.1232
11.2615
10.447
9.66679
8.91096
8.17209
7.44481
6.72531
6.01093
5.29987
4.5909
3.88323
3.17633
2.46988
1.76372
1.05779
0.352104
37.5226
37.0169
36.4653
35.8647
35.2169
34.5208
33.7702
32.9524
32.0484
31.0349
29.889
28.5962
27.1589
25.601
23.9625
22.2935
20.6481
19.0731
17.6034
16.26
15.0469
13.9542
12.9638
12.0549
11.208
10.4064
9.63688
8.88948
8.15704
7.43452
6.71844
6.00646
5.29704
4.58918
3.88222
3.17577
2.46961
1.76362
1.0578
0.352186
37.6363
37.1087
36.5418
35.9317
35.2798
34.5846
33.8391
33.0292
32.1338
31.127
29.9825
28.6827
27.2286
25.6452
23.9755
22.2739
20.5994
19.0022
17.5191
16.1714
14.9618
13.8778
12.8989
12.0022
11.1668
10.3752
9.61391
8.873
8.1455
7.42662
6.71316
6.00302
5.29486
4.58784
3.88143
3.17534
2.4694
1.76354
1.0578
0.352255
37.6956
37.157
36.5822
35.9674
35.3136
34.6191
33.8765
33.071
32.1806
31.1777
30.0342
28.7307
27.2675
25.67
23.9829
22.263
20.5722
18.9628
17.4726
16.1227
14.9151
13.836
12.8635
11.9736
11.1444
10.3583
9.60146
8.86407
8.13925
7.42234
6.7103
6.00115
5.29368
4.58711
3.88101
3.1751
2.46928
1.7635
1.05781
0.352295
37.6958
37.1571
36.5824
35.9675
35.3137
34.6192
33.8766
33.0712
32.1807
31.1778
30.0343
28.7308
27.2676
25.6701
23.9829
22.2631
20.5723
18.9629
17.4727
16.1228
14.9152
13.8361
12.8635
11.9736
11.1445
10.3583
9.60147
8.86408
8.13925
7.42234
6.7103
6.00115
5.29368
4.58711
3.88101
3.1751
2.46928
1.7635
1.05781
0.352294
37.6366
37.109
36.5421
35.932
35.2801
34.5849
33.8394
33.0295
32.1342
31.1274
29.9829
28.6831
27.2289
25.6454
23.9757
22.2741
20.5996
19.0024
17.5194
16.1717
14.962
13.878
12.899
12.0023
11.1669
10.3753
9.61394
8.87302
8.14552
7.42663
6.71316
6.00302
5.29486
4.58784
3.88144
3.17534
2.4694
1.76355
1.0578
0.352254
37.5232
37.0174
36.4658
35.8652
35.2174
34.5213
33.7708
32.953
32.049
31.0355
29.8896
28.5968
27.1595
25.6014
23.9628
22.2938
20.6484
19.0734
17.6037
16.2603
15.0472
13.9544
12.9639
12.055
11.2081
10.4065
9.63692
8.88951
8.15706
7.43453
6.71845
6.00647
5.29705
4.58918
3.88222
3.17578
2.46961
1.76363
1.0578
0.352184
37.3651
36.8912
36.362
35.7755
35.1341
34.4377
33.6814
32.8541
31.9395
30.918
29.7711
28.4878
27.0722
25.5464
23.9468
22.3184
20.7094
19.1625
17.7103
16.373
15.1561
14.0526
13.0477
12.1233
11.2616
10.4471
9.66684
8.91098
8.17211
7.44482
6.72531
6.01094
5.29987
4.5909
3.88323
3.17633
2.46988
1.76373
1.05779
0.352102
37.1761
36.7429
36.2422
35.6738
35.0414
34.3461
33.5845
32.7478
31.8228
30.7937
29.6464
28.3738
26.9813
25.4893
23.93
22.3435
20.7725
19.2552
17.8218
16.4915
15.2713
14.1571
13.1372
12.1965
11.3192
10.4908
9.69911
8.93416
8.18832
7.45589
6.73269
6.01571
5.30287
4.59272
3.88427
3.17689
2.47015
1.76382
1.05779
0.352028
36.9733
36.5877
36.12
35.5727
34.9514
34.259
33.4938
32.6495
31.7156
30.6802
29.5331
28.2706
26.8991
25.4375
23.9145
22.3656
20.8287
19.3384
17.9223
16.599
15.3764
14.2528
13.2195
12.264
11.3723
10.5313
9.72891
8.95551
8.20322
7.46601
6.73937
6.02
5.30552
4.59429
3.88515
3.17734
2.47035
1.76389
1.05779
0.351982
36.7766
36.4426
36.0099
35.485
34.8761
34.1883
33.4217
32.5722
31.6319
30.5919
29.4452
28.1906
26.8353
25.3971
23.902
22.3821
20.8717
19.4023
17.9999
16.6822
15.4579
14.3271
13.2835
12.3165
11.4136
10.5625
9.75182
8.97179
8.21445
7.47352
6.74424
6.02303
5.30733
4.5953
3.88566
3.17755
2.47041
1.76388
1.05777
0.351976
36.6085
36.3256
35.9265
35.423
34.8264
34.144
33.3782
32.5262
31.5823
30.5394
29.3928
28.1426
26.797
25.3728
23.8945
22.3921
20.8976
19.4408
18.0464
16.7319
15.5064
14.3711
13.321
12.3468
11.4371
10.5799
9.7642
8.98028
8.22003
7.47703
6.74632
6.02417
5.30786
4.59547
3.88563
3.17743
2.47026
1.76375
1.05771
0.352004
36.4932
36.2553
35.8846
35.3984
34.8118
34.1348
33.3712
32.5194
31.5745
30.5305
29.3832
28.1336
26.7899
25.3688
23.8945
22.3961
20.9049
19.4505
18.0572
16.7424
15.5156
14.3783
13.326
12.3497
11.4382
10.5798
9.76324
8.97884
8.21841
7.47542
6.74483
6.02287
5.30677
4.59458
3.88492
3.17687
2.46984
1.76346
1.05755
0.352033
36.4517
36.2517
35.9004
35.4237
34.8422
34.1687
33.408
32.559
31.6162
30.5729
29.4243
28.1708
26.8206
25.3904
23.9052
22.3953
20.893
19.4288
18.0281
16.7086
15.4798
14.343
13.2931
12.3203
11.413
10.5589
9.74638
8.96558
8.2082
7.46771
6.73912
6.0187
5.30377
4.59245
3.88342
3.17582
2.4691
1.76293
1.05719
0.351931
36.5713
36.3356
35.9611
35.4698
34.8803
34.2035
33.443
32.5964
31.6569
30.6161
29.4678
28.2109
26.8532
25.412
23.9133
22.3891
20.8735
19.3986
17.9906
16.6678
15.4393
14.3057
13.2607
12.2936
11.3919
10.5429
9.73463
8.95723
8.20245
7.46387
6.73663
6.01715
5.30286
4.59194
3.88317
3.17572
2.46906
1.76289
1.0571
0.351792
36.6074
36.3245
35.9254
35.4219
34.8252
34.1428
33.3768
32.5248
31.5807
30.5378
29.3911
28.141
26.7955
25.3715
23.8935
22.3913
20.897
19.4404
18.0462
16.7318
15.5064
14.3712
13.3211
12.3469
11.4371
10.5799
9.76424
8.9803
8.22005
7.47705
6.74633
6.02418
5.30787
4.59548
3.88564
3.17743
2.47026
1.76376
1.05771
0.352009
36.717
36.3846
35.9529
35.4291
34.8201
34.1303
33.36
32.5057
31.5609
30.5185
29.3732
28.125
26.7819
25.3606
23.886
22.3878
20.8978
19.4455
18.0553
16.7443
15.5215
14.3879
13.3383
12.3637
11.4527
10.5938
9.77612
8.99022
8.22812
7.48347
6.75134
6.02802
5.31078
4.59765
3.88724
3.17861
2.47111
1.76435
1.05806
0.352047
36.8845
36.4962
36.0268
35.4787
34.8552
34.1579
33.3852
32.5318
31.5897
30.5499
29.4052
28.1542
26.8042
25.3729
23.8865
22.3765
20.8763
19.4166
18.0224
16.7112
15.4912
14.3623
13.3184
12.3491
11.4428
10.5877
9.77283
8.98885
8.22797
7.48404
6.75227
6.02907
5.31181
4.59858
3.88805
3.17928
2.47164
1.76474
1.05829
0.352084
37.0854
36.6398
36.1314
35.558
34.9199
34.2162
33.4434
32.5941
31.6578
30.6227
29.4784
28.2205
26.8556
25.4031
23.8918
22.3567
20.8342
19.3576
17.9533
16.6393
15.4229
14.3021
13.2683
12.3095
11.4129
10.5659
9.75759
8.97859
8.22136
7.47999
6.74996
6.02789
5.31133
4.59852
3.8882
3.17952
2.47191
1.76497
1.05846
0.352162
37.2956
36.7961
36.2507
35.6535
35.0022
34.2941
33.5236
32.6814
31.754
30.7258
29.582
28.3146
26.9287
25.4463
23.9001
22.3295
20.7757
19.2751
17.8563
16.5383
15.327
14.2172
13.1972
12.2528
11.3693
10.5336
9.73435
8.96239
8.21041
7.47283
6.74545
6.02519
5.30981
4.59775
3.88788
3.17946
2.47198
1.76509
1.05859
0.352286
37.4932
36.947
36.3692
35.7515
35.0895
34.3791
33.613
32.7799
31.8635
30.8442
29.7021
28.4242
27.0141
25.4969
23.9098
22.2978
20.7075
19.1793
17.7442
16.4222
15.2173
14.1206
13.1166
12.1884
11.3198
10.4967
9.70764
8.94358
8.19752
7.46424
6.7399
6.02172
5.30775
4.59659
3.8873
3.17922
2.47193
1.76515
1.0587
0.352439
37.6593
37.0761
36.4728
35.8389
35.1691
34.458
33.6973
32.8738
31.969
30.9594
29.82
28.533
27.0995
25.5481
23.9201
22.2662
20.6394
19.0844
17.6337
16.3089
15.1112
14.0278
13.0397
12.1272
11.2727
10.4616
9.6822
8.92561
8.18514
7.45593
6.73447
6.01829
5.30566
4.59539
3.88666
3.17892
2.47184
1.76517
1.05879
0.352591
37.779
37.1702
36.5492
35.9044
35.2296
34.5188
33.7628
32.9474
32.0523
31.051
29.9148
28.6214
27.1699
25.5912
23.9292
22.2401
20.5831
19.0069
17.5447
16.2184
15.0272
13.9548
12.9794
12.0794
11.236
10.4343
9.66241
8.9116
8.17547
7.44942
6.7302
6.01557
5.30399
4.59441
3.88612
3.17866
2.47174
1.76518
1.05886
0.352714
37.8416
37.2198
36.5897
35.9394
35.2622
34.5517
33.7985
32.9879
32.0983
31.1018
29.9676
28.6712
27.2102
25.6163
23.9348
22.2253
20.5509
18.963
17.4948
16.1682
14.9809
13.9147
12.9464
12.0533
11.216
10.4194
9.65162
8.90397
8.1702
7.44586
6.72786
6.01408
5.30307
4.59386
3.88582
3.17851
2.47168
1.76517
1.0589
0.352783
37.8417
37.2199
36.5898
35.9395
35.2623
34.5518
33.7987
32.988
32.0984
31.1019
29.9677
28.6712
27.2103
25.6163
23.9349
22.2254
20.551
18.9631
17.4949
16.1683
14.981
13.9148
12.9465
12.0533
11.2161
10.4194
9.65163
8.90397
8.1702
7.44586
6.72786
6.01408
5.30307
4.59387
3.88582
3.17851
2.47168
1.76517
1.0589
0.352783
37.7793
37.1706
36.5495
35.9047
35.2299
34.5191
33.7631
32.9478
32.0527
31.0514
29.9151
28.6217
27.1702
25.5913
23.9294
22.2403
20.5834
19.0072
17.545
16.2187
15.0274
13.955
12.9795
12.0795
11.2361
10.4343
9.66243
8.91162
8.17548
7.44942
6.7302
6.01558
5.30399
4.59441
3.88612
3.17866
2.47174
1.76517
1.05886
0.352714
37.6599
37.0766
36.4733
35.8394
35.1697
34.4586
33.6978
32.8744
31.9696
30.96
29.8207
28.5336
27.0999
25.5485
23.9204
22.2665
20.6397
19.0848
17.6341
16.3092
15.1115
14.028
13.0398
12.1273
11.2728
10.4616
9.68224
8.92563
8.18516
7.45594
6.73448
6.0183
5.30566
4.59539
3.88666
3.17892
2.47184
1.76517
1.0588
0.352591
37.4939
36.9477
36.3699
35.7522
35.0902
34.3798
33.6138
32.7807
31.8644
30.8452
29.703
28.4251
27.0149
25.4975
23.9104
22.2983
20.7079
19.1797
17.7445
16.4225
15.2175
14.1208
13.1168
12.1885
11.3198
10.4967
9.70768
8.94361
8.19754
7.46425
6.73991
6.02173
5.30775
4.59659
3.8873
3.17922
2.47193
1.76515
1.0587
0.352438
37.2965
36.797
36.2515
35.6543
35.0031
34.295
33.5246
32.6824
31.7552
30.727
29.5833
28.3158
26.9298
25.4472
23.9008
22.3301
20.7761
19.2754
17.8566
16.5385
15.3271
14.2173
13.1973
12.2528
11.3693
10.5336
9.73438
8.96241
8.21043
7.47284
6.74545
6.02519
5.30981
4.59774
3.88788
3.17946
2.47197
1.76509
1.05859
0.352286
37.0864
36.6408
36.1323
35.559
34.9209
34.2173
33.4445
32.5953
31.6592
30.6242
29.4798
28.2219
26.8569
25.4042
23.8927
22.3574
20.8347
19.3579
17.9535
16.6394
15.423
14.3021
13.2683
12.3095
11.4129
10.5659
9.7576
8.9786
8.22137
7.47999
6.74996
6.02789
5.31133
4.59851
3.88819
3.17952
2.4719
1.76496
1.05846
0.352161
36.8855
36.4973
36.0279
35.4798
34.8563
34.1591
33.3865
32.5332
31.5912
30.5514
29.4068
28.1557
26.8056
25.3741
23.8875
22.3773
20.8768
19.4169
18.0226
16.7113
15.4912
14.3623
13.3183
12.3491
11.4428
10.5877
9.77282
8.98884
8.22797
7.48403
6.75226
6.02907
5.3118
4.59858
3.88804
3.17927
2.47164
1.76473
1.05829
0.352082
36.7181
36.3857
35.954
35.4302
34.8213
34.1315
33.3614
32.5072
31.5625
30.5202
29.3749
28.1266
26.7833
25.3619
23.8871
22.3886
20.8983
19.4458
18.0555
16.7444
15.5215
14.3878
13.3383
12.3636
11.4526
10.5937
9.77609
8.9902
8.2281
7.48345
6.75133
6.02801
5.31077
4.59764
3.88723
3.1786
2.47111
1.76435
1.05806
0.352046
36.6085
36.3256
35.9265
35.423
34.8264
34.144
33.3782
32.5263
31.5823
30.5395
29.3928
28.1427
26.7971
25.3728
23.8946
22.3921
20.8976
19.4407
18.0464
16.7318
15.5063
14.3711
13.321
12.3468
11.437
10.5799
9.7642
8.98027
8.22002
7.47703
6.74631
6.02416
5.30786
4.59547
3.88563
3.17742
2.47025
1.76375
1.0577
0.352006
36.5724
36.3366
35.9621
35.4709
34.8814
34.2047
33.4444
32.5979
31.6585
30.6178
29.4695
28.2126
26.8548
25.4134
23.9144
22.3899
20.8741
19.3989
17.9907
16.6678
15.4392
14.3056
13.2606
12.2935
11.3919
10.5428
9.73457
8.95718
8.20241
7.46384
6.73661
6.01713
5.30284
4.59193
3.88316
3.1757
2.46905
1.76288
1.0571
0.351789
36.7373
36.46
36.0567
35.5472
34.9479
34.2682
33.51
32.6691
31.7362
30.7003
29.5521
28.2885
26.9163
25.4537
23.9292
22.3777
20.8369
19.3415
17.9198
16.5907
15.3628
14.235
13.1992
12.2427
11.3516
10.512
9.71173
8.94074
8.19089
7.45597
6.73138
6.01375
5.30073
4.59065
3.88243
3.17531
2.46883
1.76275
1.05697
0.351665
36.7755
36.4415
36.0088
35.4839
34.875
34.187
33.4204
32.5708
31.6304
30.5903
29.4436
28.189
26.8339
25.3958
23.901
22.3814
20.8711
19.4019
17.9997
16.6821
15.4579
14.3272
13.2836
12.3165
11.4137
10.5626
9.75186
8.97181
8.21446
7.47354
6.74425
6.02304
5.30734
4.59531
3.88567
3.17756
2.47041
1.76388
1.05777
0.35198
36.8845
36.4962
36.0268
35.4787
34.8552
34.1579
33.3852
32.5318
31.5896
30.5498
29.4051
28.1541
26.8041
25.3729
23.8865
22.3765
20.8763
19.4166
18.0225
16.7112
15.4912
14.3624
13.3184
12.3491
11.4429
10.5877
9.77285
8.98886
8.22798
7.48404
6.75227
6.02907
5.31181
4.59858
3.88805