# vtk DataFile Version 2.0
I need something to put here
ASCII

DATASET STRUCTURED_GRID
DIMENSIONS 41 21 21
POINTS 18081 float
0.000000 0.000000 0.000000
0.100000 0.000000 0.000000
0.200000 0.000000 0.000000
0.300000 0.000000 0.000000
0.400000 0.000000 0.000000
0.500000 0.000000 0.000000
0.600000 0.000000 0.000000
0.700000 0.000000 0.000000
0.800000 0.000000 0.000000
0.900000 0.000000 0.000000
1.000000 0.000000 0.000000
1.100000 0.000000 0.000000
1.200000 0.000000 0.000000
1.300000 0.000000 0.000000
1.400000 0.000000 0.000000
1.500000 0.000000 0.000000
1.600000 0.000000 0.000000
1.700000 0.000000 0.000000
1.800000 0.000000 0.000000
1.900000 0.000000 0.000000
2.000000 0.000000 0.000000
2.100000 0.000000 0.000000
2.200000 0.000000 0.000000
2.300000 0.000000 0.000000
2.400000 0.000000 0.000000
2.500000 0.000000 0.000000
2.600000 0.000000 0.000000
2.700000 0.000000 0.000000
2.800000 0.000000 0.000000
2.900000 0.000000 0.000000
3.000000 0.000000 0.000000
3.100000 0.000000 0.000000
3.200000 0.000000 0.000000
3.300000 0.000000 0.000000
3.400000 0.000000 0.000000
3.500000 0.000000 0.000000
3.600000 0.000000 0.000000
3.700000 0.000000 0.000000
3.800000 0.000000 0.000000
3.900000 0.000000 0.000000
4.000000 0.000000 0.000000
0.000000 0.100000 0.000000
0.100000 0.100000 0.000000
0.200000 0.100000 0.000000
0.300000 0.100000 0.000000
0.400000 0.100000 0.000000
0.500000 0.100000 0.000000
0.600000 0.100000 0.000000
0.700000 0.100000 0.000000
0.800000 0.100000 0.000000
0.900000 0.100000 0.000000
1.000000 0.100000 0.000000
1.100000 0.100000 0.000000
1.200000 0.100000 0.000000
1.300000 0.100000 0.000000
1.400000 0.100000 0.000000
1.500000 0.100000 0.000000
1.600000 0.100000 0.000000
1.700000 0.100000 0.000000
1.800000 0.100000 0.000000
1.900000 0.100000 0.000000
2.000000 0.100000 0.000000
2.100000 0.100000 0.000000
2.200000 0.100000 0.000000
2.300000 0.100000 0.000000
2.400000 0.100000 0.000000
2.500000 0.100000 0.000000
2.600000 0.100000 0.000000
2.700000 0.100000 0.000000
2.800000 0.100000 0.000000
2.900000 0.100000 0.000000
3.000000 0.100000 0.000000
3.100000 0.100000 0.000000
3.200000 0.100000 0.000000
3.300000 0.100000 0.000000
3.400000 0.100000 0.000000
3.500000 0.100000 0.000000
3.600000 0.100000 0.000000
3.700000 0.100000 0.000000
3.800000 0.100000 0.000000
3.900000 0.100000 0.000000
4.000000 0.100000 0.000000
0.000000 0.200000 0.000000
0.100000 0.200000 0.000000
0.200000 0.200000 0.000000
0.300000 0.200000 0.000000
0.400000 0.200000 0.000000
0.500000 0.200000 0.000000
0.600000 0.200000 0.000000
0.700000 0.200000 0.000000
0.800000 0.200000 0.000000
0.900000 0.200000 0.000000
1.000000 0.200000 0.000000
1.100000 0.200000 0.000000
1.200000 0.200000 0.000000
1.300000 0.200000 0.000000
1.400000 0.200000 0.000000
1.500000 0.200000 0.000000
1.600000 0.200000 0.000000
1.700000 0.200000 0.000000
1.800000 0.200000 0.000000
1.900000 0.200000 0.000000
2.000000 0.200000 0.000000
2.100000 0.200000 0.000000
2.200000 0.200000 0.000000
2.300000 0.200000 0.000000
2.400000 0.200000 0.000000
2.500000 0.200000 0.000000
2.600000 0.200000 0.000000
2.700000 0.200000 0.000000
2.800000 0.200000 0.000000
2.900000 0.200000 0.000000
3.000000 0.200000 0.000000
3.100000 0.200000 0.000000
3.200000 0.200000 0.000000
3.300000 0.200000 0.000000
3.400000 0.200000 0.000000
3.500000 0.200000 0.000000
3.600000 0.200000 0.000000
3.700000 0.200000 0.000000
3.800000 0.200000 0.000000
3.900000 0.200000 0.000000
4.000000 0.200000 0.000000
0.000000 0.300000 0.000000
0.100000 0.300000 0.000000
0.200000 0.300000 0.000000
0.300000 0.300000 0.000000
0.400000 0.300000 0.000000
0.500000 0.300000 0.000000
0.600000 0.300000 0.000000
0.700000 0.300000 0.000000
0.800000 0.300000 0.000000
0.900000 0.300000 0.000000
1.000000 0.300000 0.000000
1.100000 0.300000 0.000000
1.200000 0.300000 0.000000
1.300000 0.300000 0.000000
1.400000 0.300000 0.000000
1.500000 0.300000 0.000000
1.600000 0.300000 0.000000
1.700000 0.300000 0.000000
1.800000 0.300000 0.000000
1.900000 0.300000 0.000000
2.000000 0.300000 0.000000
2.100000 0.300000 0.000000
2.200000 0.300000 0.000000
2.300000 0.300000 0.000000
2.400000 0.300000 0.000000
2.500000 0.300000 0.000000
2.600000 0.300000 0.000000
2.700000 0.300000 0.000000
2.800000 0.300000 0.000000
2.900000 0.300000 0.000000
3.000000 0.300000 0.000000
3.100000 0.300000 0.000000
3.200000 0.300000 0.000000
3.300000 0.300000 0.000000
3.400000 0.300000 0.000000
3.500000 0.300000 0.000000
3.600000 0.300000 0.000000
3.700000 0.300000 0.000000
3.800000 0.300000 0.000000
3.900000 0.300000 0.000000
4.000000 0.300000 0.000000
0.000000 0.400000 0.000000
0.100000 0.400000 0.000000
0.200000 0.400000 0.000000
0.300000 0.400000 0.000000
0.400000 0.400000 0.000000
0.500000 0.400000 0.000000
0.600000 0.400000 0.000000
0.700000 0.400000 0.000000
0.800000 0.400000 0.000000
0.900000 0.400000 0.000000
1.000000 0.400000 0.000000
1.100000 0.400000 0.000000
1.200000 0.400000 0.000000
1.300000 0.400000 0.000000
1.400000 0.400000 0.000000
1.500000 0.400000 0.000000
1.600000 0.400000 0.000000
1.700000 0.400000 0.000000
1.800000 0.400000 0.000000
1.900000 0.400000 0.000000
2.000000 0.400000 0.000000
2.100000 0.400000 0.000000
2.200000 0.400000 0.000000
2.300000 0.400000 0.000000
2.400000 0.400000 0.000000
2.500000 0.400000 0.000000
2.600000 0.400000 0.000000
2.700000 0.400000 0.000000
2.800000 0.400000 0.000000
2.900000 0.400000 0.000000
3.000000 0.400000 0.000000
3.100000 0.400000 0.000000
3.200000 0.400000 0.000000
3.300000 0.400000 0.000000
3.400000 0.400000 0.000000
3.500000 0.400000 0.000000
3.600000 0.400000 0.000000
3.700000 0.400000 0.000000
3.800000 0.400000 0.000000
3.900000 0.400000 0.000000
4.000000 0.400000 0.000000
0.000000 0.500000 0.000000
0.100000 0.500000 0.000000
0.200000 0.500000 0.000000
0.300000 0.500000 0.000000
0.400000 0.500000 0.000000
0.500000 0.500000 0.000000
0.600000 0.500000 0.000000
0.700000 0.500000 0.000000
0.800000 0.500000 0.000000
0.900000 0.500000 0.000000
1.000000 0.500000 0.000000
1.100000 0.500000 0.000000
1.200000 0.500000 0.000000
1.300000 0.500000 0.000000
1.400000 0.500000 0.000000
1.500000 0.500000 0.000000
1.600000 0.500000 0.000000
1.700000 0.500000 0.000000
1.800000 0.500000 0.000000
1.900000 0.500000 0.000000
2.000000 0.500000 0.000000
2.100000 0.500000 0.000000
2.200000 0.500000 0.000000
2.300000 0.500000 0.000000
2.400000 0.500000 0.000000
2.500000 0.500000 0.000000
2.600000 0.500000 0.000000
2.700000 0.500000 0.000000
2.800000 0.500000 0.000000
2.900000 0.500000 0.000000
3.000000 0.500000 0.000000
3.100000 0.500000 0.000000
3.200000 0.500000 0.000000
3.300000 0.500000 0.000000
3.400000 0.500000 0.000000
3.500000 0.500000 0.000000
3.600000 0.500000 0.000000
3.700000 0.500000 0.000000
3.800000 0.500000 0.000000
3.900000 0.500000 0.000000
4.000000 0.500000 0.000000
0.000000 0.600000 0.000000
0.100000 0.600000 0.000000
0.200000 0.600000 0.000000
0.300000 0.600000 0.000000
0.400000 0.600000 0.000000
0.500000 0.600000 0.000000
0.600000 0.600000 0.000000
0.700000 0.600000 0.000000
0.800000 0.600000 0.000000
0.900000 0.600000 0.000000
1.000000 0.600000 0.000000
1.100000 0.600000 0.000000
1.200000 0.600000 0.000000
1.300000 0.600000 0.000000
1.400000 0.600000 0.000000
1.500000 0.600000 0.000000
1.600000 0.600000 0.000000
1.700000 0.600000 0.000000
1.800000 0.600000 0.000000
1.900000 0.600000 0.000000
2.000000 0.600000 0.000000
2.100000 0.600000 0.000000
2.200000 0.600000 0.000000
2.300000 0.600000 0.000000
2.400000 0.600000 0.000000
2.500000 0.600000 0.000000
2.600000 0.600000 0.000000
2.700000 0.600000 0.000000
2.800000 0.600000 0.000000
2.900000 0.600000 0.000000
3.000000 0.600000 0.000000
3.100000 0.600000 0.000000
3.200000 0.600000 0.000000
3.300000 0.600000 0.000000
3.400000 0.600000 0.000000
3.500000 0.600000 0.000000
3.600000 0.600000 0.000000
3.700000 0.600000 0.000000
3.800000 0.600000 0.000000
3.900000 0.600000 0.000000
4.000000 0.600000 0.000000
0.000000 0.700000 0.000000
0.100000 0.700000 0.000000
0.200000 0.700000 0.000000
0.300000 0.700000 0.000000
0.400000 0.700000 0.000000
0.500000 0.700000 0.000000
0.600000 0.700000 0.000000
0.700000 0.700000 0.000000
0.800000 0.700000 0.000000
0.900000 0.700000 0.000000
1.000000 0.700000 0.000000
1.100000 0.700000 0.000000
1.200000 0.700000 0.000000
1.300000 0.700000 0.000000
1.400000 0.700000 0.000000
1.500000 0.700000 0.000000
1.600000 0.700000 0.000000
1.700000 0.700000 0.000000
1.800000 0.700000 0.000000
1.900000 0.700000 0.000000
2.000000 0.700000 0.000000
2.100000 0.700000 0.000000
2.200000 0.700000 0.000000
2.300000 0.700000 0.000000
2.400000 0.700000 0.000000
2.500000 0.700000 0.000000
2.600000 0.700000 0.000000
2.700000 0.700000 0.000000
2.800000 0.700000 0.000000
2.900000 0.700000 0.000000
3.000000 0.700000 0.000000
3.100000 0.700000 0.000000
3.200000 0.700000 0.000000
3.300000 0.700000 0.000000
3.400000 0.700000 0.000000
3.500000 0.700000 0.000000
3.600000 0.700000 0.000000
3.700000 0.700000 0.000000
3.800000 0.700000 0.000000
3.900000 0.700000 0.000000
4.000000 0.700000 0.000000
0.000000 0.800000 0.000000
0.100000 0.800000 0.000000
0.200000 0.800000 0.000000
0.300000 0.800000 0.000000
0.400000 0.800000 0.000000
0.500000 0.800000 0.000000
0.600000 0.800000 0.000000
0.700000 0.800000 0.000000
0.800000 0.800000 0.000000
0.900000 0.800000 0.000000
1.000000 0.800000 0.000000
1.100000 0.800000 0.000000
1.200000 0.800000 0.000000
1.300000 0.800000 0.000000
1.400000 0.800000 0.000000
1.500000 0.800000 0.000000
1.600000 0.800000 0.000000
1.700000 0.800000 0.000000
1.800000 0.800000 0.000000
1.900000 0.800000 0.000000
2.000000 0.800000 0.000000
2.100000 0.800000 0.000000
2.200000 0.800000 0.000000
2.300000 0.800000 0.000000
2.400000 0.800000 0.000000
2.500000 0.800000 0.000000
2.600000 0.800000 0.000000
2.700000 0.800000 0.000000
2.800000 0.800000 0.000000
2.900000 0.800000 0.000000
3.000000 0.800000 0.000000
3.100000 0.800000 0.000000
3.200000 0.800000 0.000000
3.300000 0.800000 0.000000
3.400000 0.800000 0.000000
3.500000 0.800000 0.000000
3.600000 0.800000 0.000000
[...]
CELL_DATA 16000
SCALARS pressure float 1
LOOKUP_TABLE default
34.6336
34.4568
34.1197
33.6562
33.0918
32.443
31.7174
30.9163
30.0358
29.07
28.013
26.8624
25.6223
24.3054
22.9333
21.5345
20.141
18.7829
17.4844
16.2615
15.1211
14.0624
13.0788
12.1606
11.2967
10.4759
9.6886
8.92623
8.18206
7.45083
6.72858
6.01241
5.30027
4.59072
3.88278
3.17582
2.46943
1.76341
1.05767
0.352288
34.6893
34.4869
34.1359
33.6647
33.0962
32.4452
31.7188
30.9176
30.0376
29.0725
28.0161
26.8659
25.6255
24.3077
22.9342
21.5337
20.1386
18.7795
17.4807
16.258
15.1182
14.0603
13.0776
12.1601
11.2967
10.4764
9.68923
8.92694
8.18276
7.45147
6.72914
6.01288
5.30065
4.59102
3.88302
3.176
2.46956
1.76349
1.0577
0.35224
34.8095
34.5705
34.1953
33.7088
33.1313
32.4762
31.7492
30.9499
30.0732
29.1113
28.0567
26.905
25.6592
24.3315
22.9447
21.5295
20.1207
18.7508
17.4456
16.2207
15.0823
14.0281
13.0504
12.1382
11.2798
10.4638
9.68016
8.9206
8.17846
7.44865
6.72735
6.0118
5.30003
4.59069
3.88286
3.17594
2.46955
1.76348
1.05765
0.352142
34.9726
34.6913
34.2862
33.78
33.1913
32.5316
31.8053
31.0105
30.1402
29.1844
28.1327
26.9781
25.7216
24.3751
22.9631
21.5202
20.0857
18.696
17.3788
16.1501
15.0143
13.9672
12.9988
12.0966
11.2474
10.4395
9.66243
8.90802
8.16977
7.4428
6.72352
6.00936
5.29854
4.58982
3.88238
3.17569
2.46942
1.7634
1.05757
0.352055
35.1573
34.8339
34.3973
33.8702
33.2698
32.6064
31.8828
31.0954
30.2349
29.2881
28.2409
27.0823
25.8103
24.4364
22.9879
21.5047
20.0332
18.6154
17.2818
16.0482
14.9169
13.8805
12.9257
12.0377
11.2018
10.4052
9.63746
8.89029
8.15749
7.43449
6.71804
6.00584
5.29634
4.5885
3.88162
3.17528
2.46921
1.76328
1.05749
0.352001
35.3444
34.9829
34.5166
33.9696
33.3587
32.6931
31.9744
31.1972
30.3496
29.4147
28.3736
27.2106
25.9196
24.5115
23.017
21.4834
19.9658
18.5136
17.1605
15.9221
14.7974
13.7748
12.8373
11.9668
11.1471
10.3643
9.60772
8.86921
8.14289
7.42461
6.71151
6.00164
5.29372
4.58691
3.8807
3.17478
2.46895
1.76315
1.05742
0.351981
35.517
35.1233
34.6315
34.0675
33.4481
32.7821
32.07
31.3047
30.4719
29.5507
28.5173
27.3502
26.039
24.5934
23.0479
21.4582
19.8899
18.4005
17.0273
15.7848
14.6684
13.6617
12.7432
11.892
11.0896
10.3215
9.57669
8.84726
8.12772
7.41436
6.70474
5.99728
5.29098
4.58525
3.87974
3.17425
2.46868
1.76303
1.05738
0.351989
35.6602
35.2417
34.7301
34.1528
33.5275
32.8623
32.1573
31.404
30.5858
29.6785
28.6533
27.4832
26.1533
24.6719
23.077
21.4329
19.8158
18.2911
16.8996
15.6545
14.5471
13.556
12.6559
11.8229
11.0368
10.2824
9.54843
8.82732
8.11397
7.40509
6.69862
5.99334
5.28851
4.58376
3.87887
3.17377
2.46844
1.76292
1.05736
0.352012
35.7626
35.3273
34.8021
34.2159
33.5868
32.923
32.224
31.4806
30.6744
29.7785
28.7604
27.5887
26.2444
24.7345
23.1
21.4122
19.756
18.2036
16.7982
15.5518
14.452
13.4738
12.5885
11.7698
10.9964
10.2525
9.5269
8.81218
8.10355
7.39806
6.69399
5.99036
5.28665
4.58263
3.87822
3.17341
2.46826
1.76285
1.05734
0.352036
35.8159
35.3722
34.8401
34.2495
33.6186
32.9558
32.2603
31.5223
30.7229
29.8336
28.8197
27.6473
26.2952
24.7695
23.1129
21.4004
19.7224
18.1547
16.7419
15.495
14.3998
13.4288
12.5517
11.7409
10.9745
10.2363
9.5153
8.80403
8.09795
7.3943
6.69152
5.98877
5.28566
4.58203
3.87787
3.17322
2.46817
1.76282
1.05734
0.352051
35.816
35.3722
34.8401
34.2495
33.6187
32.9558
32.2603
31.5224
30.7229
29.8336
28.8197
27.6473
26.2952
24.7695
23.1128
21.4004
19.7224
18.1547
16.742
15.4952
14.4
13.429
12.5518
11.741
10.9746
10.2364
9.51539
8.80411
8.09801
7.39435
6.69156
5.98881
5.28569
4.58205
3.87788
3.17323
2.46817
1.76282
1.05734
0.352049
35.7627
35.3274
34.8022
34.216
33.5869
32.9231
32.2241
31.4807
30.6744
29.7786
28.7604
27.5887
26.2444
24.7345
23.1
21.4122
19.7561
18.2038
16.7986
15.5522
14.4525
13.4742
12.5889
11.7701
10.9967
10.2528
9.52716
8.81239
8.10372
7.39821
6.69411
5.99045
5.28672
4.58268
3.87825
3.17343
2.46827
1.76286
1.05735
0.352031
35.6604
35.2419
34.7302
34.1529
33.5276
32.8624
32.1574
31.4041
30.586
29.6786
28.6533
27.4832
26.1533
24.6718
23.077
21.4331
19.8161
18.2915
16.9001
15.6551
14.5477
13.5567
12.6566
11.8235
11.0374
10.2829
9.54884
8.82767
8.11426
7.40532
6.6988
5.99348
5.28862
4.58384
3.87893
3.17381
2.46846
1.76294
1.05736
0.352004
35.5171
35.1234
34.6317
34.0676
33.4483
32.7823
32.0702
31.3049
30.472
29.5509
28.5174
27.3502
26.039
24.5934
23.048
21.4584
19.8903
18.401
17.028
15.7856
14.6693
13.6625
12.7441
11.8928
11.0903
10.3221
9.57724
8.84772
8.1281
7.41467
6.70498
5.99747
5.29113
4.58536
3.87982
3.1743
2.46871
1.76304
1.05738
0.351979
35.3446
34.983
34.5168
33.9698
33.3589
32.6933
31.9746
31.1974
30.3498
29.4148
28.3737
27.2106
25.9196
24.5116
23.0171
21.4836
19.9663
18.5142
17.1614
15.9231
14.7985
13.7758
12.8383
11.9678
11.148
10.3651
9.60837
8.86975
8.14334
7.42498
6.7118
6.00186
5.29389
4.58704
3.88079
3.17484
2.46898
1.76317
1.05742
0.35197
35.1575
34.8341
34.3975
33.8704
33.27
32.6066
31.883
31.0956
30.2351
29.2883
28.241
27.0824
25.8104
24.4365
22.988
21.5051
20.0338
18.6162
17.2828
16.0493
14.9181
13.8816
12.9269
12.0388
11.2027
10.4061
9.63818
8.89089
8.15799
7.43489
6.71835
6.00609
5.29653
4.58864
3.88172
3.17535
2.46925
1.7633
1.05749
0.351988
34.9728
34.6915
34.2864
33.7802
33.1915
32.5318
31.8055
31.0106
30.1403
29.1845
28.1328
26.9782
25.7217
24.3752
22.9634
21.5206
20.0863
18.6969
17.3799
16.1512
15.0155
13.9684
13
12.0977
11.2484
10.4403
9.66318
8.90865
8.17029
7.44322
6.72385
6.00962
5.29873
4.58995
3.88247
3.17575
2.46946
1.76341
1.05756
0.352042
34.8097
34.5707
34.1955
33.709
33.1315
32.4764
31.7494
30.9501
30.0733
29.1115
28.0568
26.9051
25.6593
24.3317
22.945
21.53
20.1214
18.7517
17.4466
16.2219
15.0835
14.0294
13.0516
12.1394
11.2808
10.4647
9.68092
8.92123
8.17898
7.44907
6.72768
6.01205
5.30022
4.59083
3.88296
3.176
2.46958
1.76349
1.05764
0.352129
34.6895
34.4871
34.1361
33.6649
33.0964
32.4454
31.719
30.9178
30.0378
29.0727
28.0163
26.866
25.6257
24.3079
22.9345
21.5342
20.1393
18.7804
17.4817
16.2592
15.1195
14.0616
13.0788
12.1612
11.2977
10.4772
9.68997
8.92755
8.18326
7.45187
6.72945
6.01312
5.30083
4.59115
3.8831
3.17605
2.46959
1.7635
1.0577
0.352229
34.6338
34.457
34.1199
33.6564
33.092
32.4432
31.7176
30.9165
30.036
29.0702
28.0132
26.8625
25.6225
24.3057
22.9336
21.5351
20.1417
18.7838
17.4855
16.2627
15.1223
14.0636
13.0799
12.1617
11.2976
10.4768
9.68931
8.92682
8.18254
7.45121
6.72888
6.01264
5.30044
4.59084
3.88286
3.17586
2.46945
1.76341
1.05766
0.352279
34.6893
34.4869
34.1359
33.6647
33.0962
32.4452
31.7188
30.9176
30.0376
29.0725
28.0161
26.8658
25.6255
24.3077
22.9341
21.5337
20.1386
18.7795
17.4807
16.258
15.1182
14.0603
13.0776
12.1601
11.2967
10.4764
9.68924
8.92694
8.18276
7.45147
6.72914
6.01288
5.30066
4.59102
3.88302
3.176
2.46956
1.76349
1.0577
0.35224
34.733
34.4922
34.1224
33.6424
33.0697
32.4159
31.6871
30.8835
30.0014
29.035
27.979
26.8314
25.5965
24.2868
22.9233
21.534
20.1496
18.7997
17.5076
16.2888
15.1502
14.0913
13.106
12.185
11.3177
10.4935
9.7029
8.93756
8.19086
7.45752
6.73358
6.0161
5.30295
4.59264
3.88414
3.17678
2.47011
1.76388
1.05796
0.352315
34.8492
34.5624
34.1638
33.6664
33.0833
32.4241
31.6927
30.8886
30.0072
29.0422
27.9874
26.8401
25.6041
24.2917
22.9244
21.5307
20.1426
18.7902
17.4973
16.2792
15.1422
14.0854
13.1022
12.1831
11.3173
10.4941
9.70405
8.93901
8.19236
7.45896
6.73487
6.0172
5.30385
4.59336
3.88471
3.17722
2.47044
1.76411
1.05808
0.352297
35.0154
34.6768
34.2438
33.7243
33.1281
32.4623
31.7292
30.9267
30.0489
29.0875
28.0345
26.8853
25.6424
24.3177
22.9341
21.5225
20.1181
18.7534
17.4537
16.2339
15.0995
14.0478
13.0711
12.1586
11.2988
10.4807
9.69471
8.93275
8.18835
7.45651
6.73348
6.01649
5.30357
4.59333
3.88481
3.17736
2.47059
1.76423
1.05814
0.352281
35.207
34.8166
34.348
33.8051
33.1951
32.5231
31.7898
30.9913
30.1196
29.1641
28.1137
26.961
25.706
24.3607
22.9498
21.5085
20.077
18.6922
17.3809
16.1581
15.0275
13.9841
13.0177
12.1158
11.2658
10.4562
9.67709
8.92044
8.18
7.45103
6.73
6.01437
5.30235
4.59268
3.88451
3.17727
2.47059
1.76426
1.05818
0.352292
35.4024
34.9645
34.4624
33.8972
33.2744
32.5976
31.8658
31.0735
30.2105
29.2629
28.2161
27.0589
25.7885
24.4162
22.9695
21.4893
20.0227
18.6118
17.2861
16.06
14.9347
13.902
12.9489
12.0607
11.2233
10.4245
9.65406
8.90419
8.16884
7.44356
6.72515
6.01133
5.30051
4.59163
3.88395
3.177
2.47049
1.76425
1.0582
0.352333
35.5827
35.1046
34.5736
33.9891
33.3557
32.6757
31.947
31.1625
30.3095
29.3713
28.3293
27.1676
25.8804
24.478
22.991
21.4667
19.9608
18.5213
17.1804
15.9514
14.8327
13.8123
12.8741
12.0009
11.1772
10.3901
9.62908
8.88652
8.15665
7.43536
6.71977
6.0079
5.29841
4.59039
3.88327
3.17666
2.47035
1.76422
1.05822
0.352394
35.7325
35.2231
34.6693
34.0698
33.4284
32.7467
32.0219
31.2454
30.4026
29.4741
28.4372
27.2721
25.9692
24.5378
23.0114
21.4442
19.9001
18.4334
17.0786
15.8478
14.7361
13.728
12.8041
11.9452
11.1344
10.3581
9.60591
8.87013
8.14533
7.42773
6.71476
6.0047
5.29642
4.58921
3.8826
3.17632
2.4702
1.76417
1.05825
0.35246
35.8395
35.3086
34.7393
34.1295
33.4829
32.8006
32.0793
31.3095
30.4752
29.5547
28.5225
27.3553
26.0403
24.5859
23.0277
21.4256
19.8509
18.3629
16.9976
15.766
14.6603
13.6622
12.7497
11.9021
11.1014
10.3336
9.58812
8.85756
8.13665
7.42187
6.7109
6.00223
5.29489
4.5883
3.88208
3.17604
2.47008
1.76414
1.05827
0.352516
35.8952
35.3535
34.7762
34.1613
33.5121
32.8298
32.1105
31.3445
30.515
29.5991
28.5697
27.4016
26.0801
24.6129
23.0368
21.4151
19.8232
18.3234
16.9526
15.7208
14.6187
13.6262
12.7201
11.8787
11.0835
10.3203
9.57851
8.85077
8.13197
7.41872
6.70883
6.0009
5.29407
4.5878
3.88181
3.1759
2.47001
1.76413
1.05828
0.352548
35.8952
35.3535
34.7762
34.1613
33.5121
32.8298
32.1105
31.3445
30.515
29.5991
28.5697
27.4016
26.0801
24.6129
23.0368
21.4151
19.8232
18.3235
16.9527
15.7209
14.6188
13.6263
12.7202
11.8788
11.0836
10.3204
9.57859
8.85084
8.13203
7.41877
6.70887
6.00093
5.29409
4.58782
3.88182
3.17591
2.47002
1.76413
1.05828
0.352547
35.8396
35.3087
34.7393
34.1296
33.4829
32.8007
32.0794
31.3096
30.4753
29.5547
28.5225
27.3553
26.0403
24.5859
23.0277
21.4257
19.851
18.3631
16.9979
15.7664
14.6607
13.6626
12.7501
11.9024
11.1017
10.3338
9.58836
8.85776
8.13682
7.42201
6.71101
6.00231
5.29496
4.58835
3.88212
3.17607
2.47009
1.76415
1.05827
0.352514
35.7327
35.2232
34.6694
34.0699
33.4285
32.7468
32.022
31.2455
30.4028
29.4741
28.4372
27.2721
25.9692
24.5378
23.0114
21.4443
19.9003
18.4338
17.0791
15.8484
14.7367
13.7286
12.8047
11.9457
11.1349
10.3586
9.60629
8.87045
8.1456
7.42795
6.71493
6.00483
5.29653
4.58929
3.88266
3.17636
2.47022
1.76419
1.05826
0.352457
35.5829
35.1048
34.5737
33.9893
33.3558
32.6758
31.9472
31.1626
30.3097
29.3715
28.3294
27.1677
25.8804
24.478
22.9911
21.467
19.9612
18.5219
17.181
15.9522
14.8335
13.8132
12.8749
12.0017
11.1779
10.3906
9.62958
8.88695
8.157
7.43565
6.72
6.00809
5.29855
4.5905
3.88334
3.17671
2.47038
1.76424
1.05824
0.352389
35.4026
34.9647
34.4626
33.8974
33.2746
32.5977
31.866
31.0737
30.2107
29.263
28.2163
27.059
25.7886
24.4163
22.9697
21.4896
20.0231
18.6124
17.2869
16.0609
14.9356
13.903
12.9499
12.0616
11.2241
10.4252
9.65466
8.9047
8.16926
7.44391
6.72542
6.01154
5.30068
4.59175
3.88404
3.17707
2.47054
1.76428
1.05821
0.352327
35.2072
34.8168
34.3482
33.8053
33.1953
32.5232
31.7899
30.9915
30.1198
29.1643
28.1139
26.9611
25.7061
24.3609
22.95
21.5089
20.0776
18.6929
17.3818
16.1591
15.0286
13.9852
13.0187
12.1168
11.2667
10.457
9.67776
8.92101
8.18047
7.45141
6.7303
6.01461
5.30253
4.59282
3.88461
3.17733
2.47063
1.76429
1.05819
0.352285
35.0155
34.677
34.244
33.7245
33.1283
32.4625
31.7294
30.9269
30.0491
29.0876
28.0346
26.8854
25.6425
24.3179
22.9344
21.5229
20.1187
18.7542
17.4546
16.2349
15.1006
14.049
13.0722
12.1596
11.2997
10.4815
9.69542
8.93335
8.18884
7.45691
6.7338
6.01674
5.30376
4.59347
3.8849
3.17743
2.47063
1.76425
1.05815
0.352273
34.8494
34.5626
34.164
33.6666
33.0835
32.4243
31.6929
30.8888
30.0074
29.0424
27.9875
26.8402
25.6043
24.292
22.9248
21.5312
20.1433
18.7911
17.4983
16.2803
15.1434
14.0866
13.1034
12.1842
11.3182
10.4949
9.70477
8.93961
8.19286
7.45936
6.73519
6.01744
5.30404
4.5935
3.88481
3.17728
2.47047
1.76413
1.05809
0.352288
34.7332
34.4924
34.1226
33.6426
33.0699
32.4161
31.6873
30.8837
30.0016
29.0352
27.9792
26.8316
25.5967
24.287
22.9237
21.5345
20.1503
18.8005
17.5086
16.2899
15.1514
14.0925
13.1071
12.186
11.3186
10.4944
9.7036
8.93816
8.19134
7.45791
6.73389
6.01633
5.30312
4.59276
3.88422
3.17683
2.47013
1.76389
1.05796
0.352305
34.6895
34.4871
34.1361
33.6649
33.0964
32.4454
31.719
30.9178
30.0378
29.0727
28.0163
26.866
25.6257
24.308
22.9345
21.5342
20.1393
18.7803
17.4817
16.2591
15.1194
14.0615
13.0787
12.1612
11.2976
10.4772
9.68992
8.92751
8.18322
7.45184
6.72942
6.0131
5.30081
4.59113
3.88309
3.17604
2.46958
1.76349
1.05769
0.352229
34.8095
34.5705
34.1953
33.7088
33.1313
32.4762
31.7492
30.9499
30.0731
29.1113
28.0566
26.905
25.6591
24.3315
22.9446
21.5295
20.1207
18.7509
17.4456
16.2207
15.0823
14.0282
13.0504
12.1383
11.2798
10.4638
9.68017
8.92061
8.17847
7.44865
6.72735
6.0118
5.30003
4.59069
3.88287
3.17594
2.46955
1.76348
1.05765
0.352142
34.8492
34.5624
34.1638
33.6664
33.0833
32.4241
31.6927
30.8886
30.0072
29.0422
27.9873
26.8401
25.6041
24.2917
22.9244
21.5307
20.1426
18.7902
17.4973
16.2792
15.1423
14.0854
13.1023
12.1831
11.3173
10.4941
9.70406
8.93901
8.19237
7.45896
6.73487
6.0172
5.30385
4.59337
3.88471
3.17722
2.47044
1.76411
1.05808
0.352297
34.9612
34.6237
34.1923
33.6749
33.08
32.4135
31.6779
30.8714
29.9891
29.0242
27.9707
26.8254
25.592
24.2824
22.918
21.5275
20.1431
18.7946
17.5056
16.2908
15.1563
14.1008
13.1178
12.1979
11.3308
10.5059
9.71404
8.94723
8.19897
7.46416
6.73889
6.02025
5.30614
4.59506
3.88595
3.17812
2.47108
1.76456
1.05835
0.352327
35.1277
34.7335
34.2641
33.7221
33.1121
32.4374
31.6985
30.8921
30.0121
29.0503
27.9989
26.8533
25.6155
24.2972
22.921
21.5178
20.1223
18.7666
17.4748
16.2611
15.1304
14.0799
13.1021
12.187
11.3237
10.5019
9.7121
8.94669
8.19928
7.46492
6.73984
6.02124
5.30706
4.59587
3.88663
3.17867
2.47151
1.76487
1.05853
0.352358
35.3239
34.8723
34.3635
33.7955
33.1698
32.4874
31.7468
30.9432
30.0685
29.1124
28.0642
26.9162
25.6682
24.3314
22.9303
21.5003
20.0814
18.7094
17.41
16.1964
15.0712
14.0294
13.0614
12.1556
11.3005
10.4853
9.70078
8.93925
8.19461
7.46217
6.73836
6.02056
5.30687
4.59594
3.88684
3.17892
2.47176
1.76507
1.05867
0.352421
35.5263
35.0214
34.4753
33.8827
33.2425
32.5538
31.8135
31.0152
30.1486
29.2007
28.1569
27.0058
25.7435
24.3803
22.9437
21.4754
20.0233
18.6287
17.3188
16.1055
14.9881
13.9581
13.0032
12.1102
11.2663
10.4604
9.68316
8.92717
8.18661
7.45704
6.73521
6.01873
5.3059
4.5955
3.88671
3.17895
2.47187
1.7652
1.05879
0.352519
35.7146
35.1639
34.5854
33.9714
33.319
32.6259
31.8877
31.0965
30.24
29.3021
28.2645
27.1106
25.8323
24.4383
22.9593
21.4455
19.9543
18.5337
17.2128
16.0008
14.893
13.8769
12.9372
12.0585
11.2272
10.4318
9.66277
8.91304
8.17707
7.4508
6.73126
6.01633
5.30451
4.59477
3.88637
3.17885
2.47189
1.76528
1.05889
0.352638
35.8716
35.2849
34.6808
34.05
33.3883
32.6926
31.9576
31.1741
30.3282
29.4011
28.3706
27.2151
25.9219
24.4974
22.9752
21.4145
19.8837
18.438
17.1074
15.8982
14.8008
13.7988
12.874
12.0093
11.1901
10.4045
9.64331
8.89949
8.16787
7.44473
6.72737
6.01393
5.3031
4.59398
3.88598
3.1787
2.47186
1.76532
1.05898
0.352756
35.984
35.3725
34.7509
34.1085
33.4407
32.7438
32.0119
31.235
30.398
29.4802
28.4564
27.3009
25.9966
24.5471
22.9886
21.3882
19.8243
18.3587
17.0216
15.8156
14.7274
13.7371
12.8244
11.9708
11.1611
10.3833
9.62815
8.88892
8.16069
7.43996
6.7243
6.01202
5.30195
4.59334
3.88565
3.17856
2.47183
1.76535
1.05905
0.352851
36.0426
35.4185
34.7879
34.1397
33.4689
32.7716
32.0415
31.2684
30.4366
29.5243
28.5046
27.3496
26.0395
24.5761
22.9964
21.3728
19.79
18.3133
16.973
15.7695
14.6867
13.7032
12.7972
11.9498
11.1453
10.3717
9.61991
8.88318
8.15679
7.43738
6.72264
6.01098
5.30133
4.59299
3.88547
3.17848
2.47181
1.76537
1.05908
0.352904
36.0426
35.4185
34.7879
34.1397
33.469
32.7716
32.0415
31.2684
30.4366
29.5243
28.5046
27.3496
26.0394
24.576
22.9964
21.3728
19.79
18.3134
16.9732
15.7696
14.6869
13.7033
12.7974
11.9499
11.1454
10.3718
9.61999
8.88325
8.15684
7.43742
6.72267
6.01101
5.30136
4.59301
3.88548
3.17849
2.47182
1.76537
1.05908
0.352903
35.9841
35.3726
34.7509
34.1086
33.4408
32.7439
32.012
31.235
30.3981
29.4803
28.4564
27.3009
25.9965
24.5471
22.9886
21.3883
19.8245
18.3589
17.0219
15.816
14.7278
13.7375
12.8248
11.9711
11.1614
10.3836
9.62838
8.88911
8.16085
7.44009
6.72441
6.0121
5.30202
4.59339
3.88569
3.17858
2.47185
1.76536
1.05905
0.352849
35.8717
35.285
34.6809
34.0501
33.3884
32.6927
31.9577
31.1742
30.3283
29.4012
28.3706
27.2152
25.9219
24.4973
22.9752
21.4147
19.8839
18.4384
17.108
15.8987
14.8014
13.7994
12.8746
12.0098
11.1906
10.4049
9.64367
8.8998
8.16813
7.44494
6.72754
6.01406
5.3032
4.59406
3.88604
3.17874
2.47189
1.76534
1.05899
0.352753
35.7147
35.164
34.5856
33.9715
33.3191
32.626
31.8879
31.0967
30.2402
29.3023
28.2646
27.1106
25.8323
24.4383
22.9594
21.4457
19.9546
18.5342
17.2134
16.0015
14.8938
13.8777
12.9379
12.0592
11.2279
10.4323
9.66326
8.91345
8.17741
7.45108
6.73149
6.01651
5.30465
4.59487
3.88645
3.1789
2.47192
1.76529
1.0589
0.352633
35.5265
35.0216
34.4755
33.8829
33.2427
32.554
31.8137
31.0154
30.1488
29.2009
28.1571
27.0059
25.7436
24.3804
22.9438
21.4758
20.0238
18.6293
17.3196
16.1064
14.989
13.959
13.0041
12.111
11.267
10.461
9.68374
8.92767
8.18701
7.45738
6.73548
6.01894
5.30606
4.59562
3.88679
3.17901
2.4719
1.76521
1.0588
0.352514
35.324
34.8725
34.3636
33.7957
33.17
32.4876
31.747
30.9434
30.0688
29.1126
28.0644
26.9164
25.6684
24.3316
22.9305
21.5006
20.0819
18.7102
17.4109
16.1974
15.0723
14.0305
13.0624
12.1565
11.3013
10.4861
9.70143
8.9398
8.19507
7.46254
6.73866
6.02079
5.30704
4.59607
3.88693
3.17898
2.47179
1.76509
1.05868
0.352415
35.1279
34.7337
34.2643
33.7223
33.1123
32.4376
31.6987
30.8923
30.0123
29.0505
27.9991
26.8534
25.6156
24.2974
22.9213
21.5182
20.1229
18.7674
17.4757
16.2622
15.1315
14.081
13.1032
12.188
11.3247
10.5027
9.71279
8.94727
8.19976
7.46531
6.74015
6.02147
5.30724
4.596
3.88672
3.17873
2.47155
1.76488
1.05854
0.35235
34.9614
34.6239
34.1925
33.6751
33.0802
32.4137
31.6781
30.8716
29.9893
29.0244
27.9708
26.8256
25.5921
24.2826
22.9183
21.528
20.1437
18.7955
17.5066
16.2919
15.1575
14.1019
13.1189
12.199
11.3317
10.5067
9.71474
8.94782
8.19946
7.46455
6.7392
6.02049
5.30632
4.59519
3.88604
3.17817
2.47112
1.76457
1.05835
0.352318
34.8494
34.5626
34.164
33.6666
33.0835
32.4243
31.6929
30.8888
30.0074
29.0424
27.9875
26.8402
25.6042
24.2919
22.9247
21.5312
20.1433
18.7911
17.4983
16.2803
15.1434
14.0866
13.1034
12.1842
11.3182
10.4949
9.70475
8.93959
8.19284
7.45934
6.73516
6.01742
5.30402
4.59348
3.88479
3.17726
2.47046
1.76411
1.05808
0.352286
34.8097
34.5707
34.1955
33.709
33.1315
32.4764
31.7494
30.9501
30.0734
29.1115
28.0568
26.9051
25.6593
24.3317
22.945
21.53
20.1214
18.7518
17.4466
16.2219
15.0835
14.0293
13.0515
12.1393
11.2807
10.4646
9.68083
8.92115
8.17891
7.449
6.72761
6.01199
5.30017
4.59079
3.88292
3.17597
2.46956
1.76347
1.05763
0.352126
34.9726
34.6913
34.2862
33.78
33.1913
32.5316
31.8053
31.0104
30.1401
29.1842
28.1325
26.978
25.7215
24.375
22.963
21.5201
20.0857
18.6961
17.3789
16.1501
15.0144
13.9673
12.9989
12.0966
11.2475
10.4395
9.66246
8.90804
8.16979
7.44281
6.72352
6.00937
5.29854
4.58982
3.88238
3.17569
2.46943
1.7634
1.05757
0.352056
35.0153
34.6768
34.2438
33.7243
33.1281
32.4623
31.7292
30.9267
30.0488
29.0874
28.0344
26.8852
25.6423
24.3176
22.934
21.5224
20.118
18.7535
17.4537
16.2339
15.0995
14.0479
13.0712
12.1586
11.2988
10.4807
9.69473
8.93276
8.18836
7.45652
6.73348
6.0165
5.30358
4.59333
3.88481
3.17737
2.47059
1.76423
1.05814
0.352282
35.1277
34.7335
34.2641
33.7221
33.1121
32.4374
31.6985
30.8921
30.012
29.0503
27.9989
26.8532
25.6154
24.2972
22.921
21.5177
20.1223
18.7666
17.4748
16.2611
15.1304
14.0799
13.1022
12.1871
11.3238
10.5019
9.71211
8.9467
8.19928
7.46493
6.73984
6.02124
5.30706
4.59587
3.88663
3.17867
2.47152