# vtk DataFile Version 2.0
I need something to put here
ASCII

DATASET STRUCTURED_GRID
DIMENSIONS 41 21 21
POINTS 18081 float
0.000000 0.000000 0.000000
0.100000 0.000000 0.000000
0.200000 0.000000 0.000000
0.300000 0.000000 0.000000
0.400000 0.000000 0.000000
0.500000 0.000000 0.000000
0.600000 0.000000 0.000000
0.700000 0.000000 0.000000
0.800000 0.000000 0.000000
0.900000 0.000000 0.000000
1.000000 0.000000 0.000000
1.100000 0.000000 0.000000
1.200000 0.000000 0.000000
1.300000 0.000000 0.000000
1.400000 0.000000 0.000000
1.500000 0.000000 0.000000
1.600000 0.000000 0.000000
1.700000 0.000000 0.000000
1.800000 0.000000 0.000000
1.900000 0.000000 0.000000
2.000000 0.000000 0.000000
2.100000 0.000000 0.000000
2.200000 0.000000 0.000000
2.300000 0.000000 0.000000
2.400000 0.000000 0.000000
2.500000 0.000000 0.000000
2.600000 0.000000 0.000000
2.700000 0.000000 0.000000
2.800000 0.000000 0.000000
2.900000 0.000000 0.000000
3.000000 0.000000 0.000000
3.100000 0.000000 0.000000
3.200000 0.000000 0.000000
3.300000 0.000000 0.000000
3.400000 0.000000 0.000000
3.500000 0.000000 0.000000
3.600000 0.000000 0.000000
3.700000 0.000000 0.000000
3.800000 0.000000 0.000000
3.900000 0.000000 0.000000
4.000000 0.000000 0.000000
0.000000 0.100000 0.000000
0.100000 0.100000 0.000000
0.200000 0.100000 0.000000
0.300000 0.100000 0.000000
0.400000 0.100000 0.000000
0.500000 0.100000 0.000000
0.600000 0.100000 0.000000
0.700000 0.100000 0.000000
0.800000 0.100000 0.000000
0.900000 0.100000 0.000000
1.000000 0.100000 0.000000
1.100000 0.100000 0.000000
1.200000 0.100000 0.000000
1.300000 0.100000 0.000000
1.400000 0.100000 0.000000
1.500000 0.100000 0.000000
1.600000 0.100000 0.000000
1.700000 0.100000 0.000000
1.800000 0.100000 0.000000
1.900000 0.100000 0.000000
2.000000 0.100000 0.000000
2.100000 0.100000 0.000000
2.200000 0.100000 0.000000
2.300000 0.100000 0.000000
2.400000 0.100000 0.000000
2.500000 0.100000 0.000000
2.600000 0.100000 0.000000
2.700000 0.100000 0.000000
2.800000 0.100000 0.000000
2.900000 0.100000 0.000000
3.000000 0.100000 0.000000
3.100000 0.100000 0.000000
3.200000 0.100000 0.000000
3.300000 0.100000 0.000000
3.400000 0.100000 0.000000
3.500000 0.100000 0.000000
3.600000 0.100000 0.000000
3.700000 0.100000 0.000000
3.800000 0.100000 0.000000
3.900000 0.100000 0.000000
4.000000 0.100000 0.000000
0.000000 0.200000 0.000000
0.100000 0.200000 0.000000
0.200000 0.200000 0.000000
0.300000 0.200000 0.000000
0.400000 0.200000 0.000000
0.500000 0.200000 0.000000
0.600000 0.200000 0.000000
0.700000 0.200000 0.000000
0.800000 0.200000 0.000000
0.900000 0.200000 0.000000
1.000000 0.200000 0.000000
1.100000 0.200000 0.000000
1.200000 0.200000 0.000000
1.300000 0.200000 0.000000
1.400000 0.200000 0.000000
1.500000 0.200000 0.000000
1.600000 0.200000 0.000000
1.700000 0.200000 0.000000
1.800000 0.200000 0.000000
1.900000 0.200000 0.000000
2.000000 0.200000 0.000000
2.100000 0.200000 0.000000
2.200000 0.200000 0.000000
2.300000 0.200000 0.000000
2.400000 0.200000 0.000000
2.500000 0.200000 0.000000
2.600000 0.200000 0.000000
2.700000 0.200000 0.000000
2.800000 0.200000 0.000000
2.900000 0.200000 0.000000
3.000000 0.200000 0.000000
3.100000 0.200000 0.000000
3.200000 0.200000 0.000000
3.300000 0.200000 0.000000
3.400000 0.200000 0.000000
3.500000 0.200000 0.000000
3.600000 0.200000 0.000000
3.700000 0.200000 0.000000
3.800000 0.200000 0.000000
3.900000 0.200000 0.000000
4.000000 0.200000 0.000000
0.000000 0.300000 0.000000
0.100000 0.300000 0.000000
0.200000 0.300000 0.000000
0.300000 0.300000 0.000000
0.400000 0.300000 0.000000
0.500000 0.300000 0.000000
0.600000 0.300000 0.000000
0.700000 0.300000 0.000000
0.800000 0.300000 0.000000
0.900000 0.300000 0.000000
1.000000 0.300000 0.000000
1.100000 0.300000 0.000000
1.200000 0.300000 0.000000
1.300000 0.300000 0.000000
1.400000 0.300000 0.000000
1.500000 0.300000 0.000000
1.600000 0.300000 0.000000
1.700000 0.300000 0.000000
1.800000 0.300000 0.000000
1.900000 0.300000 0.000000
2.000000 0.300000 0.000000
2.100000 0.300000 0.000000
2.200000 0.300000 0.000000
2.300000 0.300000 0.000000
2.400000 0.300000 0.000000
2.500000 0.300000 0.000000
2.600000 0.300000 0.000000
2.700000 0.300000 0.000000
2.800000 0.300000 0.000000
2.900000 0.300000 0.000000
3.000000 0.300000 0.000000
3.100000 0.300000 0.000000
3.200000 0.300000 0.000000
3.300000 0.300000 0.000000
3.400000 0.300000 0.000000
3.500000 0.300000 0.000000
3.600000 0.300000 0.000000
3.700000 0.300000 0.000000
3.800000 0.300000 0.000000
3.900000 0.300000 0.000000
4.000000 0.300000 0.000000
0.000000 0.400000 0.000000
0.100000 0.400000 0.000000
0.200000 0.400000 0.000000
0.300000 0.400000 0.000000
0.400000 0.400000 0.000000
0.500000 0.400000 0.000000
0.600000 0.400000 0.000000
0.700000 0.400000 0.000000
0.800000 0.400000 0.000000
0.900000 0.400000 0.000000
1.000000 0.400000 0.000000
1.100000 0.400000 0.000000
1.200000 0.400000 0.000000
1.300000 0.400000 0.000000
1.400000 0.400000 0.000000
1.500000 0.400000 0.000000
1.600000 0.400000 0.000000
1.700000 0.400000 0.000000
1.800000 0.400000 0.000000
1.900000 0.400000 0.000000
2.000000 0.400000 0.000000
2.100000 0.400000 0.000000
2.200000 0.400000 0.000000
2.300000 0.400000 0.000000
2.400000 0.400000 0.000000
2.500000 0.400000 0.000000
2.600000 0.400000 0.000000
2.700000 0.400000 0.000000
2.800000 0.400000 0.000000
2.900000 0.400000 0.000000
3.000000 0.400000 0.000000
3.100000 0.400000 0.000000
3.200000 0.400000 0.000000
3.300000 0.400000 0.000000
3.400000 0.400000 0.000000
3.500000 0.400000 0.000000
3.600000 0.400000 0.000000
3.700000 0.400000 0.000000
3.800000 0.400000 0.000000
3.900000 0.400000 0.000000
4.000000 0.400000 0.000000
0.000000 0.500000 0.000000
0.100000 0.500000 0.000000
0.200000 0.500000 0.000000
0.300000 0.500000 0.000000
0.400000 0.500000 0.000000
0.500000 0.500000 0.000000
0.600000 0.500000 0.000000
0.700000 0.500000 0.000000
0.800000 0.500000 0.000000
0.900000 0.500000 0.000000
1.000000 0.500000 0.000000
1.100000 0.500000 0.000000
1.200000 0.500000 0.000000
1.300000 0.500000 0.000000
1.400000 0.500000 0.000000
1.500000 0.500000 0.000000
1.600000 0.500000 0.000000
1.700000 0.500000 0.000000
1.800000 0.500000 0.000000
1.900000 0.500000 0.000000
2.000000 0.500000 0.000000
2.100000 0.500000 0.000000
2.200000 0.500000 0.000000
2.300000 0.500000 0.000000
2.400000 0.500000 0.000000
2.500000 0.500000 0.000000
2.600000 0.500000 0.000000
2.700000 0.500000 0.000000
2.800000 0.500000 0.000000
2.900000 0.500000 0.000000
3.000000 0.500000 0.000000
3.100000 0.500000 0.000000
3.200000 0.500000 0.000000
3.300000 0.500000 0.000000
3.400000 0.500000 0.000000
3.500000 0.500000 0.000000
3.600000 0.500000 0.000000
3.700000 0.500000 0.000000
3.800000 0.500000 0.000000
3.900000 0.500000 0.000000
4.000000 0.500000 0.000000
0.000000 0.600000 0.000000
0.100000 0.600000 0.000000
0.200000 0.600000 0.000000
0.300000 0.600000 0.000000
0.400000 0.600000 0.000000
0.500000 0.600000 0.000000
0.600000 0.600000 0.000000
0.700000 0.600000 0.000000
0.800000 0.600000 0.000000
0.900000 0.600000 0.000000
1.000000 0.600000 0.000000
1.100000 0.600000 0.000000
1.200000 0.600000 0.000000
1.300000 0.600000 0.000000
1.400000 0.600000 0.000000
1.500000 0.600000 0.000000
1.600000 0.600000 0.000000
1.700000 0.600000 0.000000
1.800000 0.600000 0.000000
1.900000 0.600000 0.000000
2.000000 0.600000 0.000000
2.100000 0.600000 0.000000
2.200000 0.600000 0.000000
2.300000 0.600000 0.000000
2.400000 0.600000 0.000000
2.500000 0.600000 0.000000
2.600000 0.600000 0.000000
2.700000 0.600000 0.000000
2.800000 0.600000 0.000000
2.900000 0.600000 0.000000
3.000000 0.600000 0.000000
3.100000 0.600000 0.000000
3.200000 0.600000 0.000000
3.300000 0.600000 0.000000
3.400000 0.600000 0.000000
3.500000 0.600000 0.000000
3.600000 0.600000 0.000000
3.700000 0.600000 0.000000
3.800000 0.600000 0.000000
3.900000 0.600000 0.000000
4.000000 0.600000 0.000000
0.000000 0.700000 0.000000
0.100000 0.700000 0.000000
0.200000 0.700000 0.000000
0.300000 0.700000 0.000000
0.400000 0.700000 0.000000
0.500000 0.700000 0.000000
0.600000 0.700000 0.000000
0.700000 0.700000 0.000000
0.800000 0.700000 0.000000
0.900000 0.700000 0.000000
1.000000 0.700000 0.000000
1.100000 0.700000 0.000000
1.200000 0.700000 0.000000
1.300000 0.700000 0.000000
1.400000 0.700000 0.000000
1.500000 0.700000 0.000000
1.600000 0.700000 0.000000
1.700000 0.700000 0.000000
1.800000 0.700000 0.000000
1.900000 0.700000 0.000000
2.000000 0.700000 0.000000
2.100000 0.700000 0.000000
2.200000 0.700000 0.000000
2.300000 0.700000 0.000000
2.400000 0.700000 0.000000
2.500000 0.700000 0.000000
2.600000 0.700000 0.000000
2.700000 0.700000 0.000000
2.800000 0.700000 0.000000
2.900000 0.700000 0.000000
3.000000 0.700000 0.000000
3.100000 0.700000 0.000000
3.200000 0.700000 0.000000
3.300000 0.700000 0.000000
3.400000 0.700000 0.000000
3.500000 0.700000 0.000000
3.600000 0.700000 0.000000
3.700000 0.700000 0.000000
3.800000 0.700000 0.000000
3.900000 0.700000 0.000000
4.000000 0.700000 0.000000
0.000000 0.800000 0.000000
0.100000 0.800000 0.000000
0.200000 0.800000 0.000000
0.300000 0.800000 0.000000
0.400000 0.800000 0.000000
0.500000 0.800000 0.000000
0.600000 0.800000 0.000000
0.700000 0.800000 0.000000
0.800000 0.800000 0.000000
0.900000 0.800000 0.000000
1.000000 0.800000 0.000000
1.100000 0.800000 0.000000
1.200000 0.800000 0.000000
1.300000 0.800000 0.000000
1.400000 0.800000 0.000000
1.500000 0.800000 0.000000
1.600000 0.800000 0.000000
1.700000 0.800000 0.000000
1.800000 0.800000 0.000000
1.900000 0.800000 0.000000
2.000000 0.800000 0.000000
2.100000 0.800000 0.000000
2.200000 0.800000 0.000000
2.300000 0.800000 0.000000
2.400000 0.800000 0.000000
2.500000 0.800000 0.000000
2.600000 0.800000 0.000000
2.700000 0.800000 0.000000
2.800000 0.800000 0.000000
2.900000 0.800000 0.000000
3.000000 0.800000 0.000000
3.100000 0.800000 0.000000
3.200000 0.800000 0.000000
3.300000 0.800000 0.000000
3.400000 0.800000 0.000000
3.500000 0.800000 0.000000
3.600000 0.800000 0.000000
[...]
CELL_DATA 16000
SCALARS pressure float 1
LOOKUP_TABLE default
34.6311
34.4543
34.1172
33.6537
33.0893
32.4405
31.715
30.9139
30.0335
29.0678
28.0108
26.8604
25.6204
24.3037
22.9317
21.5331
20.1397
18.7818
17.4835
16.2608
15.1205
14.0619
13.0785
12.1604
11.2965
10.4758
9.68851
8.92617
8.18202
7.4508
6.72856
6.01241
5.30027
4.59072
3.88278
3.17582
2.46943
1.76341
1.05767
0.352289
34.6868
34.4844
34.1334
33.6622
33.0937
32.4427
31.7163
30.9152
30.0353
29.0702
28.014
26.8638
25.6236
24.306
22.9326
21.5323
20.1374
18.7784
17.4798
16.2573
15.1176
14.0599
13.0773
12.1599
11.2965
10.4762
9.68914
8.92688
8.18272
7.45145
6.72912
6.01287
5.30065
4.59102
3.88302
3.176
2.46957
1.76349
1.0577
0.352241
34.807
34.568
34.1928
33.7063
33.1289
32.4737
31.7468
30.9475
30.0708
29.1091
28.0545
26.903
25.6573
24.3298
22.9431
21.5281
20.1194
18.7498
17.4447
16.22
15.0817
14.0277
13.0501
12.138
11.2796
10.4637
9.68007
8.92054
8.17843
7.44863
6.72733
6.01179
5.30003
4.59069
3.88286
3.17595
2.46955
1.76348
1.05765
0.352144
34.9701
34.6888
34.2837
33.7775
33.1888
32.5291
31.8028
31.008
30.1378
29.1821
28.1305
26.9761
25.7197
24.3733
22.9615
21.5188
20.0844
18.695
17.378
16.1493
15.0137
13.9668
12.9985
12.0963
11.2473
10.4394
9.66235
8.90797
8.16974
7.44278
6.72351
6.00935
5.29853
4.58982
3.88238
3.17569
2.46943
1.7634
1.05757
0.352059
35.1548
34.8314
34.3948
33.8677
33.2673
32.6039
31.8803
31.0929
30.2325
29.2858
28.2387
27.0803
25.8084
24.4347
22.9862
21.5033
20.0319
18.6143
17.2809
16.0475
14.9164
13.8801
12.9254
12.0375
11.2017
10.4051
9.6374
8.89025
8.15746
7.43448
6.71803
6.00584
5.29634
4.5885
3.88163
3.17529
2.46921
1.76329
1.05749
0.352006
35.3419
34.9803
34.5141
33.9671
33.3562
32.6906
31.9719
31.1948
30.3472
29.4124
28.3714
27.2085
25.9177
24.5097
23.0154
21.4819
19.9645
18.5125
17.1597
15.9214
14.7969
13.7744
12.837
11.9667
11.147
10.3642
9.60768
8.86918
8.14287
7.4246
6.7115
6.00164
5.29372
4.58691
3.88071
3.17478
2.46895
1.76316
1.05743
0.351989
35.5144
35.1207
34.629
34.0649
33.4456
32.7796
32.0675
31.3023
30.4695
29.5484
28.515
27.3481
26.037
24.5916
23.0463
21.4568
19.8887
18.3994
17.0264
15.7842
14.668
13.6613
12.743
11.8918
11.0895
10.3215
9.57666
8.84724
8.12771
7.41436
6.70474
5.99728
5.29099
4.58526
3.87975
3.17425
2.46868
1.76304
1.05739
0.352
35.6577
35.2392
34.7276
34.1503
33.5249
32.8598
32.1548
31.4015
30.5834
29.6761
28.651
27.4811
26.1513
24.6701
23.0754
21.4315
19.8146
18.29
16.8988
15.6539
14.5466
13.5557
12.6557
11.8228
11.0368
10.2823
9.5484
8.82731
8.11397
7.40509
6.69862
5.99334
5.28852
4.58376
3.87888
3.17377
2.46844
1.76293
1.05737
0.352026
35.7601
35.3248
34.7995
34.2134
33.5843
32.9205
32.2215
31.4781
30.6719
29.7761
28.7581
27.5865
26.2424
24.7327
23.0984
21.4107
19.7547
18.2025
16.7974
15.5512
14.4516
13.4735
12.5883
11.7697
10.9963
10.2525
9.52689
8.81218
8.10355
7.39807
6.694
5.99037
5.28666
4.58264
3.87822
3.17342
2.46827
1.76286
1.05736
0.352054
35.8134
35.3696
34.8375
34.2469
33.6161
32.9532
32.2577
31.5198
30.7204
29.8312
28.8174
27.6451
26.2932
24.7677
23.1112
21.3989
19.7211
18.1536
16.7411
15.4944
14.3994
13.4286
12.5515
11.7408
10.9744
10.2363
9.51529
8.80403
8.09796
7.39431
6.69153
5.98878
5.28567
4.58204
3.87788
3.17323
2.46818
1.76283
1.05736
0.352071
35.8134
35.3696
34.8375
34.247
33.6161
32.9533
32.2577
31.5199
30.7204
29.8312
28.8174
27.6451
26.2932
24.7677
23.1112
21.3989
19.7211
18.1537
16.7412
15.4946
14.3995
13.4287
12.5517
11.7409
10.9746
10.2364
9.51538
8.80411
8.09802
7.39436
6.69157
5.98881
5.28569
4.58206
3.87789
3.17324
2.46818
1.76283
1.05736
0.352073
35.7602
35.3249
34.7996
34.2135
33.5844
32.9206
32.2216
31.4782
30.672
29.7762
28.7582
27.5865
26.2424
24.7327
23.0984
21.4108
19.7549
18.2027
16.7977
15.5516
14.452
13.474
12.5887
11.77
10.9967
10.2528
9.52714
8.81239
8.10373
7.39821
6.69412
5.99046
5.28673
4.58269
3.87826
3.17344
2.46829
1.76288
1.05737
0.352057
35.6578
35.2393
34.7277
34.1504
33.525
32.8599
32.1549
31.4017
30.5835
29.6763
28.6511
27.4811
26.1513
24.67
23.0754
21.4316
19.8148
18.2904
16.8993
15.6545
14.5473
13.5564
12.6564
11.8234
11.0373
10.2828
9.54881
8.82766
8.11425
7.40532
6.69881
5.99348
5.28863
4.58385
3.87894
3.17382
2.46847
1.76295
1.05738
0.352032
35.5146
35.1209
34.6292
34.0651
33.4458
32.7797
32.0677
31.3024
30.4696
29.5485
28.5151
27.3481
26.037
24.5916
23.0463
21.457
19.889
18.3999
17.0271
15.785
14.6688
13.6622
12.7438
11.8926
11.0902
10.3221
9.5772
8.8477
8.12809
7.41466
6.70498
5.99747
5.29113
4.58537
3.87983
3.17431
2.46872
1.76306
1.0574
0.352007
35.3421
34.9805
34.5143
33.9673
33.3564
32.6908
31.9721
31.195
30.3474
29.4125
28.3715
27.2085
25.9177
24.5098
23.0155
21.4822
19.965
18.5132
17.1605
15.9224
14.7979
13.7755
12.838
11.9676
11.1478
10.365
9.60832
8.86972
8.14332
7.42497
6.71179
6.00186
5.29389
4.58704
3.8808
3.17484
2.46899
1.76318
1.05744
0.351997
35.155
34.8316
34.395
33.8679
33.2675
32.6041
31.8805
31.0931
30.2327
29.286
28.2388
27.0803
25.8085
24.4348
22.9864
21.5036
20.0325
18.6151
17.2819
16.0486
14.9175
13.8812
12.9266
12.0385
11.2026
10.406
9.63811
8.89085
8.15796
7.43488
6.71834
6.00608
5.29653
4.58864
3.88173
3.17535
2.46926
1.76331
1.0575
0.352014
34.9703
34.689
34.2839
33.7777
33.189
32.5293
31.803
31.0082
30.138
29.1822
28.1306
26.9762
25.7198
24.3735
22.9618
21.5192
20.0851
18.6958
17.379
16.1505
15.015
13.968
12.9997
12.0974
11.2483
10.4402
9.6631
8.9086
8.17026
7.4432
6.72384
6.00961
5.29873
4.58995
3.88248
3.17576
2.46947
1.76342
1.05758
0.352064
34.8072
34.5682
34.193
33.7065
33.1291
32.474
31.747
30.9477
30.071
29.1092
28.0546
26.9031
25.6574
24.33
22.9434
21.5286
20.1201
18.7507
17.4457
16.2212
15.0829
14.0289
13.0513
12.1391
11.2806
10.4645
9.68083
8.92117
8.17894
7.44904
6.72766
6.01204
5.30021
4.59083
3.88296
3.176
2.46959
1.7635
1.05765
0.352146
34.687
34.4846
34.1336
33.6624
33.0939
32.443
31.7166
30.9154
30.0355
29.0704
28.0141
26.864
25.6238
24.3062
22.9329
21.5328
20.1381
18.7793
17.4808
16.2584
15.1189
14.0611
13.0784
12.161
11.2975
10.4771
9.68988
8.92749
8.18322
7.45185
6.72944
6.01311
5.30083
4.59114
3.8831
3.17605
2.46959
1.7635
1.0577
0.35224
34.6313
34.4545
34.1174
33.6539
33.0896
32.4407
31.7152
30.9141
30.0337
29.068
28.011
26.8605
25.6206
24.3039
22.9321
21.5336
20.1405
18.7827
17.4846
16.2619
15.1217
14.0631
13.0796
12.1614
11.2974
10.4766
9.68922
8.92676
8.1825
7.45119
6.72886
6.01263
5.30043
4.59083
3.88286
3.17586
2.46945
1.76341
1.05766
0.352283
34.6868
34.4844
34.1334
33.6622
33.0937
32.4427
31.7163
30.9152
30.0353
29.0702
28.014
26.8638
25.6236
24.306
22.9325
21.5323
20.1374
18.7784
17.4798
16.2573
15.1177
14.0599
13.0773
12.1599
11.2965
10.4763
9.68915
8.92688
8.18272
7.45145
6.72912
6.01288
5.30065
4.59102
3.88302
3.176
2.46957
1.76349
1.0577
0.352241
34.7305
34.4897
34.1199
33.6399
33.0672
32.4135
31.6847
30.8811
29.9991
29.0328
27.9769
26.8294
25.5946
24.285
22.9218
21.5325
20.1484
18.7986
17.5067
16.2881
15.1496
14.0908
13.1056
12.1847
11.3175
10.4934
9.7028
8.9375
8.19081
7.4575
6.73357
6.01609
5.30294
4.59263
3.88414
3.17677
2.47011
1.76388
1.05796
0.352314
34.8467
34.5599
34.1613
33.6639
33.0809
32.4216
31.6903
30.8862
30.0049
29.0399
27.9852
26.8381
25.6022
24.29
22.9228
21.5293
20.1414
18.7891
17.4964
16.2784
15.1416
14.085
13.1019
12.1829
11.3171
10.494
9.70396
8.93894
8.19232
7.45893
6.73485
6.01718
5.30385
4.59336
3.88471
3.17722
2.47044
1.76411
1.05808
0.352297
35.0129
34.6743
34.2413
33.7218
33.1257
32.4598
31.7268
30.9243
30.0466
29.0852
28.0323
26.8833
25.6405
24.316
22.9325
21.521
20.1168
18.7524
17.4528
16.2332
15.0989
14.0474
13.0708
12.1583
11.2986
10.4806
9.69462
8.93269
8.18831
7.45648
6.73346
6.01648
5.30356
4.59332
3.8848
3.17736
2.47058
1.76422
1.05814
0.35228
35.2045
34.8141
34.3455
33.8026
33.1926
32.5206
31.7873
30.9889
30.1173
29.1618
28.1115
26.9589
25.7041
24.359
22.9482
21.507
20.0758
18.6911
17.38
16.1574
15.027
13.9837
13.0174
12.1156
11.2657
10.4561
9.67701
8.92039
8.17997
7.451
6.72998
6.01436
5.30235
4.59268
3.88451
3.17726
2.47058
1.76425
1.05817
0.35229
35.3999
34.962
34.4599
33.8947
33.2719
32.5951
31.8633
31.0711
30.2081
29.2606
28.2139
27.0568
25.7866
24.4145
22.9679
21.4878
20.0214
18.6107
17.2852
16.0593
14.9342
13.9016
12.9486
12.0605
11.2232
10.4244
9.65399
8.90415
8.16881
7.44354
6.72513
6.01132
5.3005
4.59162
3.88394
3.177
2.47049
1.76424
1.05819
0.352329
35.5802
35.1021
34.5711
33.9866
33.3532
32.6732
31.9445
31.16
30.3071
29.369
28.327
27.1656
25.8785
24.4762
22.9893
21.4653
19.9595
18.5203
17.1795
15.9508
14.8322
13.812
12.8739
12.0007
11.1771
10.39
9.62902
8.88648
8.15662
7.43534
6.71976
6.0079
5.2984
4.59039
3.88326
3.17665
2.47034
1.7642
1.05821
0.35239
35.73
35.2205
34.6667
34.0672
33.4258
32.7442
32.0194
31.2429
30.4002
29.4717
28.435
27.27
25.9673
24.536
23.0098
21.4427
19.8988
18.4324
17.0777
15.8472
14.7356
13.7276
12.8038
11.945
11.1343
10.358
9.60587
8.8701
8.14531
7.42772
6.71475
6.00469
5.29642
4.5892
3.88259
3.17631
2.47018
1.76416
1.05823
0.352456
35.837
35.3061
34.7367
34.127
33.4803
32.7981
32.0768
31.307
30.4728
29.5523
28.5203
27.3532
26.0384
24.5841
23.0261
21.4242
19.8496
18.3618
16.9967
15.7654
14.6598
13.6618
12.7495
11.9019
11.1013
10.3335
9.58809
8.85753
8.13663
7.42186
6.7109
6.00222
5.29489
4.58829
3.88207
3.17603
2.47006
1.76412
1.05825
0.352512
35.8927
35.3509
34.7736
34.1587
33.5096
32.8272
32.108
31.342
30.5126
29.5967
28.5675
27.3994
26.0782
24.6111
23.0352
21.4137
19.8219
18.3223
16.9517
15.7202
14.6182
13.6258
12.7199
11.8785
11.0834
10.3202
9.57848
8.85075
8.13196
7.41871
6.70882
6.0009
5.29406
4.5878
3.8818
3.17589
2.47
1.7641
1.05826
0.352543
35.8927
35.351
34.7737
34.1588
33.5096
32.8273
32.108
31.342
30.5126
29.5968
28.5675
27.3994
26.0782
24.6111
23.0352
21.4137
19.8219
18.3224
16.9518
15.7203
14.6183
13.626
12.72
11.8786
11.0835
10.3203
9.57856
8.85082
8.13201
7.41876
6.70886
6.00093
5.29409
4.58782
3.88181
3.1759
2.47
1.76411
1.05826
0.352543
35.8371
35.3062
34.7368
34.127
33.4804
32.7982
32.0769
31.3071
30.4729
29.5524
28.5203
27.3532
26.0384
24.5841
23.0261
21.4243
19.8498
18.3621
16.9971
15.7657
14.6602
13.6622
12.7499
11.9023
11.1016
10.3338
9.58832
8.85773
8.1368
7.422
6.71101
6.00231
5.29495
4.58834
3.88211
3.17606
2.47008
1.76413
1.05825
0.352511
35.7301
35.2206
34.6668
34.0673
33.4259
32.7443
32.0195
31.243
30.4004
29.4718
28.435
27.27
25.9673
24.536
23.0098
21.4429
19.8991
18.4328
17.0782
15.8477
14.7362
13.7282
12.8044
11.9456
11.1348
10.3585
9.60625
8.87042
8.14558
7.42793
6.71492
6.00483
5.29652
4.58928
3.88265
3.17635
2.47021
1.76417
1.05823
0.352455
35.5804
35.1023
34.5712
33.9868
33.3533
32.6733
31.9447
31.1602
30.3073
29.3692
28.3272
27.1656
25.8785
24.4763
22.9894
21.4655
19.9599
18.5208
17.1802
15.9515
14.833
13.8128
12.8746
12.0015
11.1778
10.3906
9.62953
8.88691
8.15698
7.43563
6.71999
6.00808
5.29854
4.59049
3.88333
3.1767
2.47037
1.76421
1.05821
0.352389
35.4
34.9622
34.4601
33.8949
33.2721
32.5953
31.8635
31.0713
30.2083
29.2608
28.2141
27.0569
25.7867
24.4146
22.9681
21.4881
20.0219
18.6114
17.286
16.0602
14.9351
13.9026
12.9496
12.0614
11.224
10.4251
9.65459
8.90465
8.16923
7.44388
6.72541
6.01153
5.30067
4.59174
3.88403
3.17706
2.47052
1.76426
1.05819
0.352328
35.2047
34.8143
34.3457
33.8028
33.1928
32.5208
31.7875
30.9891
30.1175
29.162
28.1117
26.959
25.7042
24.3591
22.9484
21.5074
20.0763
18.6918
17.3809
16.1584
15.028
13.9847
13.0184
12.1165
11.2666
10.4569
9.67768
8.92095
8.18044
7.45138
6.73029
6.0146
5.30253
4.59281
3.8846
3.17732
2.47062
1.76427
1.05817
0.352288
35.0131
34.6745
34.2415
33.722
33.1259
32.46
31.727
30.9245
30.0468
29.0854
28.0325
26.8834
25.6406
24.3162
22.9328
21.5215
20.1174
18.7532
17.4537
16.2342
15.1
14.0485
13.0719
12.1594
11.2995
10.4814
9.69533
8.93328
8.1888
7.45688
6.73378
6.01673
5.30375
4.59346
3.8849
3.17742
2.47062
1.76423
1.05814
0.352278
34.8469
34.5601
34.1615
33.6641
33.0811
32.4218
31.6905
30.8864
30.0051
29.0401
27.9854
26.8382
25.6024
24.2902
22.9232
21.5298
20.142
18.79
17.4974
16.2795
15.1428
14.0861
13.103
12.1839
11.318
10.4948
9.70468
8.93955
8.19282
7.45933
6.73517
6.01743
5.30403
4.59349
3.8848
3.17727
2.47047
1.76412
1.05808
0.352294
34.7307
34.4899
34.1201
33.6402
33.0674
32.4137
31.6849
30.8813
29.9993
29.033
27.977
26.8295
25.5948
24.2853
22.9221
21.5331
20.1491
18.7995
17.5077
16.2892
15.1508
14.092
13.1067
12.1858
11.3184
10.4942
9.70351
8.93809
8.1913
7.45788
6.73387
6.01632
5.30311
4.59275
3.88422
3.17682
2.47013
1.76388
1.05795
0.35231
34.687
34.4846
34.1336
33.6624
33.0939
32.443
31.7166
30.9154
30.0355
29.0704
28.0142
26.864
25.6238
24.3062
22.9329
21.5328
20.1381
18.7793
17.4808
16.2584
15.1188
14.061
13.0784
12.1609
11.2975
10.477
9.68983
8.92745
8.18318
7.45181
6.72941
6.01309
5.30081
4.59113
3.88308
3.17604
2.46958
1.76349
1.05769
0.352232
34.807
34.568
34.1928
33.7063
33.1288
32.4737
31.7467
30.9475
30.0708
29.109
28.0544
26.9029
25.6572
24.3297
22.943
21.528
20.1194
18.7498
17.4447
16.22
15.0817
14.0277
13.0501
12.138
11.2797
10.4637
9.68009
8.92055
8.17843
7.44863
6.72734
6.01179
5.30003
4.59069
3.88287
3.17595
2.46956
1.76348
1.05765
0.352144
34.8467
34.5599
34.1613
33.6639
33.0809
32.4216
31.6903
30.8862
30.0049
29.0399
27.9852
26.838
25.6022
24.29
22.9228
21.5293
20.1413
18.7891
17.4964
16.2784
15.1417
14.085
13.1019
12.1829
11.3171
10.494
9.70397
8.93895
8.19233
7.45893
6.73485
6.01719
5.30385
4.59336
3.88471
3.17722
2.47044
1.76411
1.05808
0.352297
34.9587
34.6212
34.1898
33.6724
33.0775
32.4111
31.6754
30.869
29.9867
29.022
27.9685
26.8234
25.5901
24.2806
22.9164
21.5261
20.1418
18.7935
17.5047
16.2901
15.1557
14.1003
13.1174
12.1977
11.3306
10.5058
9.71394
8.94716
8.19893
7.46413
6.73887
6.02024
5.30614
4.59506
3.88596
3.17812
2.47109
1.76456
1.05835
0.352328
35.1252
34.731
34.2616
33.7196
33.1096
32.435
31.696
30.8897
30.0098
29.0481
27.9968
26.8512
25.6136
24.2955
22.9194
21.5163
20.121
18.7655
17.4739
16.2604
15.1298
14.0794
13.1018
12.1868
11.3236
10.5017
9.71201
8.94662
8.19924
7.46489
6.73982
6.02122
5.30705
4.59586
3.88663
3.17867
2.47152
1.76487
1.05853
0.352359
35.3214
34.8698
34.361
33.793
33.1673
32.4849
31.7444
30.9408
30.0662
29.1102
28.062
26.9142
25.6663
24.3297
22.9287
21.4988
20.0801
18.7084
17.4091
16.1957
15.0707
14.029
13.061
12.1554
11.3003
10.4852
9.70069
8.93919
8.19458
7.46215
6.73834
6.02055
5.30686
4.59594
3.88684
3.17893
2.47177
1.76508
1.05867
0.352423
35.5238
35.0189
34.4728
33.8802
33.24
32.5513
31.8111
31.0128
30.1463
29.1984
28.1548
27.0037
25.7416
24.3786
22.9421
21.474
20.0221
18.6276
17.318
16.1048
14.9875
13.9577
13.0029
12.1099
11.2661
10.4603
9.68308
8.92712
8.18657
7.45702
6.7352
6.01872
5.30589
4.5955
3.88671
3.17896
2.47188
1.76521
1.05879
0.35252
35.712
35.1614
34.5829
33.9689
33.3165
32.6234
31.8852
31.0941
30.2376
29.2998
28.2623
27.1085
25.8303
24.4365
22.9577
21.4441
19.953
18.5326
17.2119
16.0001
14.8924
13.8765
12.9369
12.0583
11.2271
10.4317
9.66271
8.913
8.17704
7.45078
6.73125
6.01633
5.30452
4.59477
3.88638
3.17886
2.4719
1.76529
1.0589
0.352639
35.8691
35.2823
34.6783
34.0474
33.3858
32.6901
31.9551
31.1716
30.3258
29.3988
28.3683
27.213
25.92
24.4956
22.9736
21.4131
19.8824
18.4369
17.1066
15.8975
14.8003
13.7984
12.8737
12.0091
11.19
10.4044
9.64325
8.89945
8.16785
7.44471
6.72736
6.01392
5.30309
4.59398
3.88599
3.17871
2.47188
1.76534
1.05898
0.352757
35.9815
35.37
34.7483
34.106
33.4382
32.7413
32.0094
31.2325
30.3956
29.4779
28.4542
27.2988
25.9946
24.5453
22.9869
21.3867
19.8231
18.3576
17.0207
15.8149
14.7269
13.7368
12.8242
11.9706
11.161
10.3832
9.6281
8.88889
8.16067
7.43995
6.7243
6.01201
5.30196
4.59334
3.88566
3.17857
2.47185
1.76537
1.05905
0.352852
36.0401
35.416
34.7854
34.1371
33.4664
32.7691
32.039
31.266
30.4342
29.522
28.5024
27.3475
26.0375
24.5743
22.9948
21.3714
19.7887
18.3123
16.9722
15.7688
14.6863
13.7029
12.797
11.9496
11.1452
10.3717
9.61986
8.88315
8.15677
7.43737
6.72263
6.01098
5.30134
4.59299
3.88548
3.17849
2.47183
1.76538
1.05908
0.352904
36.0401
35.416
34.7854
34.1372
33.4664
32.7691
32.039
31.266
30.4342
29.522
28.5024
27.3475
26.0375
24.5743
22.9948
21.3714
19.7887
18.3124
16.9723
15.769
14.6864
13.703
12.7971
11.9497
11.1453
10.3718
9.61994
8.88322
8.15682
7.43741
6.72267
6.011
5.30136
4.59301
3.88549
3.1785
2.47183
1.76539
1.05908
0.352903
35.9816
35.3701
34.7484
34.106
33.4383
32.7414
32.0095
31.2326
30.3957
29.478
28.4542
27.2988
25.9946
24.5453
22.9869
21.3868
19.8232
18.3579
17.021
15.8153
14.7273
13.7372
12.8245
11.971
11.1613
10.3835
9.62833
8.88908
8.16083
7.44008
6.7244
6.0121
5.30202
4.59339
3.8857
3.17859
2.47186
1.76538
1.05905
0.352849
35.8692
35.2825
34.6784
34.0476
33.3859
32.6902
31.9552
31.1718
30.3259
29.3989
28.3684
27.2131
25.92
24.4955
22.9736
21.4132
19.8827
18.4373
17.1071
15.8981
14.8009
13.799
12.8743
12.0096
11.1904
10.4048
9.64362
8.89976
8.16811
7.44492
6.72753
6.01406
5.3032
4.59406
3.88605
3.17875
2.4719
1.76535
1.05899
0.352753
35.7122
35.1615
34.5831
33.969
33.3166
32.6235
31.8854
31.0942
30.2378
29.3
28.2624
27.1086
25.8304
24.4365
22.9578
21.4443
19.9534
18.5332
17.2126
16.0008
14.8932
13.8773
12.9376
12.059
11.2277
10.4322
9.66319
8.91341
8.17738
7.45106
6.73147
6.0165
5.30465
4.59487
3.88645
3.17891
2.47193
1.76531
1.0589
0.352633
35.524
35.0191
34.473
33.8804
33.2402
32.5515
31.8113
31.013
30.1465
29.1986
28.1549
27.0039
25.7417
24.3787
22.9423
21.4743
20.0226
18.6283
17.3187
16.1057
14.9885
13.9586
13.0038
12.1108
11.2669
10.4609
9.68366
8.92761
8.18698
7.45735
6.73546
6.01893
5.30605
4.59562
3.8868
3.17902
2.47191
1.76523
1.05879
0.352513
35.3216
34.87
34.3611
33.7932
33.1675
32.4851
31.7446
30.941
30.0664
29.1104
28.0622
26.9143
25.6665
24.3298
22.9289
21.4992
20.0807
18.7091
17.41
16.1967
15.0717
14.03
13.062
12.1563
11.3012
10.4859
9.70134
8.93973
8.19503
7.46251
6.73864
6.02078
5.30704
4.59607
3.88693
3.17899
2.4718
1.7651
1.05867
0.352414
35.1254
34.7312
34.2618
33.7198
33.1098
32.4352
31.6963
30.8899
30.01
29.0483
27.9969
26.8514
25.6137
24.2957
22.9197
21.5168
20.1217
18.7663
17.4748
16.2614
15.1309
14.0805
13.1029
12.1878
11.3245
10.5025
9.7127
8.9472
8.19972
7.46528
6.74013
6.02146
5.30723
4.59599
3.88672
3.17873
2.47156
1.76489
1.05853
0.35235
34.9589
34.6214
34.19
33.6726
33.0777
32.4113
31.6757
30.8692
29.987
29.0222
27.9687
26.8236
25.5903
24.2809
22.9168
21.5266
20.1425
18.7944
17.5057
16.2912
15.1569
14.1015
13.1185
12.1987
11.3315
10.5066
9.71465
8.94775
8.19941
7.46452
6.73918
6.02048
5.30631
4.59518
3.88604
3.17818
2.47112
1.76457
1.05835
0.352318
34.8469
34.5601
34.1615
33.6641
33.0811
32.4218
31.6905
30.8864
30.0051
29.0401
27.9854
26.8382
25.6024
24.2902
22.9232
21.5298
20.1421
18.79
17.4974
16.2796
15.1429
14.0862
13.103
12.1839
11.318
10.4948
9.70466
8.93953
8.1928
7.45931
6.73514
6.01741
5.30401
4.59347
3.88479
3.17726
2.47046
1.76411
1.05807
0.352287
34.8072
34.5682
34.193
33.7065
33.1291
32.474
31.747
30.9477
30.071
29.1092
28.0546
26.9031
25.6574
24.33
22.9434
21.5285
20.1201
18.7507
17.4457
16.2211
15.0829
14.0289
13.0512
12.139
11.2806
10.4645
9.68075
8.92109
8.17887
7.44897
6.7276
6.01198
5.30016
4.59078
3.88292
3.17597
2.46956
1.76347
1.05763
0.352127
34.97
34.6888
34.2837
33.7775
33.1888
32.5291
31.8028
31.008
30.1377
29.182
28.1303
26.9759
25.7195
24.3732
22.9614
21.5187
20.0844
18.695
17.378
16.1494
15.0138
13.9669
12.9986
12.0964
11.2473
10.4394
9.66238
8.90799
8.16976
7.44279
6.72351
6.00936
5.29854
4.58982
3.88238
3.17569
2.46943
1.7634
1.05757
0.352059
35.0128
34.6743
34.2413
33.7218
33.1256
32.4598
31.7267
30.9243
30.0465
29.0851
28.0322
26.8832
25.6404
24.3159
22.9324
21.521
20.1168
18.7524
17.4528
16.2332
15.099
14.0475
13.0708
12.1584
11.2986
10.4806
9.69464
8.9327
8.18832
7.45649
6.73347
6.01648
5.30357
4.59332
3.8848
3.17736
2.47058
1.76422
1.05814
0.35228
35.1252
34.731
34.2616
33.7196
33.1096
32.435
31.696
30.8897
30.0097
29.048
27.9967
26.8512
25.6135
24.2954
22.9194
21.5163
20.121
18.7655
17.4739
16.2604
15.1298
14.0795
13.1018
12.1868
11.3236
10.5017
9.71202
8.94663
8.19924
7.4649
6.73983
6.02123
5.30706
4.59586
3.88663
3.17867
2.47152
1.76487
1.05853
0.352359
35.2933
34.8389
34.3281
33.7591
33.1324
32.4484
31.7054