# vtk DataFile Version 2.0
I need something to put here
ASCII

DATASET STRUCTURED_GRID
DIMENSIONS 41 21 21
POINTS 18081 float
0.000000 0.000000 0.000000
0.100000 0.000000 0.000000
0.200000 0.000000 0.000000
0.300000 0.000000 0.000000
0.400000 0.000000 0.000000
0.500000 0.000000 0.000000
0.600000 0.000000 0.000000
0.700000 0.000000 0.000000
0.800000 0.000000 0.000000
0.900000 0.000000 0.000000
1.000000 0.000000 0.000000
1.100000 0.000000 0.000000
1.200000 0.000000 0.000000
1.300000 0.000000 0.000000
1.400000 0.000000 0.000000
1.500000 0.000000 0.000000
1.600000 0.000000 0.000000
1.700000 0.000000 0.000000
1.800000 0.000000 0.000000
1.900000 0.000000 0.000000
2.000000 0.000000 0.000000
2.100000 0.000000 0.000000
2.200000 0.000000 0.000000
2.300000 0.000000 0.000000
2.400000 0.000000 0.000000
2.500000 0.000000 0.000000
2.600000 0.000000 0.000000
2.700000 0.000000 0.000000
2.800000 0.000000 0.000000
2.900000 0.000000 0.000000
3.000000 0.000000 0.000000
3.100000 0.000000 0.000000
3.200000 0.000000 0.000000
3.300000 0.000000 0.000000
3.400000 0.000000 0.000000
3.500000 0.000000 0.000000
3.600000 0.000000 0.000000
3.700000 0.000000 0.000000
3.800000 0.000000 0.000000
3.900000 0.000000 0.000000
4.000000 0.000000 0.000000
0.000000 0.100000 0.000000
0.100000 0.100000 0.000000
0.200000 0.100000 0.000000
0.300000 0.100000 0.000000
0.400000 0.100000 0.000000
0.500000 0.100000 0.000000
0.600000 0.100000 0.000000
0.700000 0.100000 0.000000
0.800000 0.100000 0.000000
0.900000 0.100000 0.000000
1.000000 0.100000 0.000000
1.100000 0.100000 0.000000
1.200000 0.100000 0.000000
1.300000 0.100000 0.000000
1.400000 0.100000 0.000000
1.500000 0.100000 0.000000
1.600000 0.100000 0.000000
1.700000 0.100000 0.000000
1.800000 0.100000 0.000000
1.900000 0.100000 0.000000
2.000000 0.100000 0.000000
2.100000 0.100000 0.000000
2.200000 0.100000 0.000000
2.300000 0.100000 0.000000
2.400000 0.100000 0.000000
2.500000 0.100000 0.000000
2.600000 0.100000 0.000000
2.700000 0.100000 0.000000
2.800000 0.100000 0.000000
2.900000 0.100000 0.000000
3.000000 0.100000 0.000000
3.100000 0.100000 0.000000
3.200000 0.100000 0.000000
3.300000 0.100000 0.000000
3.400000 0.100000 0.000000
3.500000 0.100000 0.000000
3.600000 0.100000 0.000000
3.700000 0.100000 0.000000
3.800000 0.100000 0.000000
3.900000 0.100000 0.000000
4.000000 0.100000 0.000000
0.000000 0.200000 0.000000
0.100000 0.200000 0.000000
0.200000 0.200000 0.000000
0.300000 0.200000 0.000000
0.400000 0.200000 0.000000
0.500000 0.200000 0.000000
0.600000 0.200000 0.000000
0.700000 0.200000 0.000000
0.800000 0.200000 0.000000
0.900000 0.200000 0.000000
1.000000 0.200000 0.000000
1.100000 0.200000 0.000000
1.200000 0.200000 0.000000
1.300000 0.200000 0.000000
1.400000 0.200000 0.000000
1.500000 0.200000 0.000000
1.600000 0.200000 0.000000
1.700000 0.200000 0.000000
1.800000 0.200000 0.000000
1.900000 0.200000 0.000000
2.000000 0.200000 0.000000
2.100000 0.200000 0.000000
2.200000 0.200000 0.000000
2.300000 0.200000 0.000000
2.400000 0.200000 0.000000
2.500000 0.200000 0.000000
2.600000 0.200000 0.000000
2.700000 0.200000 0.000000
2.800000 0.200000 0.000000
2.900000 0.200000 0.000000
3.000000 0.200000 0.000000
3.100000 0.200000 0.000000
3.200000 0.200000 0.000000
3.300000 0.200000 0.000000
3.400000 0.200000 0.000000
3.500000 0.200000 0.000000
3.600000 0.200000 0.000000
3.700000 0.200000 0.000000
3.800000 0.200000 0.000000
3.900000 0.200000 0.000000
4.000000 0.200000 0.000000
0.000000 0.300000 0.000000
0.100000 0.300000 0.000000
0.200000 0.300000 0.000000
0.300000 0.300000 0.000000
0.400000 0.300000 0.000000
0.500000 0.300000 0.000000
0.600000 0.300000 0.000000
0.700000 0.300000 0.000000
0.800000 0.300000 0.000000
0.900000 0.300000 0.000000
1.000000 0.300000 0.000000
1.100000 0.300000 0.000000
1.200000 0.300000 0.000000
1.300000 0.300000 0.000000
1.400000 0.300000 0.000000
1.500000 0.300000 0.000000
1.600000 0.300000 0.000000
1.700000 0.300000 0.000000
1.800000 0.300000 0.000000
1.900000 0.300000 0.000000
2.000000 0.300000 0.000000
2.100000 0.300000 0.000000
2.200000 0.300000 0.000000
2.300000 0.300000 0.000000
2.400000 0.300000 0.000000
2.500000 0.300000 0.000000
2.600000 0.300000 0.000000
2.700000 0.300000 0.000000
2.800000 0.300000 0.000000
2.900000 0.300000 0.000000
3.000000 0.300000 0.000000
3.100000 0.300000 0.000000
3.200000 0.300000 0.000000
3.300000 0.300000 0.000000
3.400000 0.300000 0.000000
3.500000 0.300000 0.000000
3.600000 0.300000 0.000000
3.700000 0.300000 0.000000
3.800000 0.300000 0.000000
3.900000 0.300000 0.000000
4.000000 0.300000 0.000000
0.000000 0.400000 0.000000
0.100000 0.400000 0.000000
0.200000 0.400000 0.000000
0.300000 0.400000 0.000000
0.400000 0.400000 0.000000
0.500000 0.400000 0.000000
0.600000 0.400000 0.000000
0.700000 0.400000 0.000000
0.800000 0.400000 0.000000
0.900000 0.400000 0.000000
1.000000 0.400000 0.000000
1.100000 0.400000 0.000000
1.200000 0.400000 0.000000
1.300000 0.400000 0.000000
1.400000 0.400000 0.000000
1.500000 0.400000 0.000000
1.600000 0.400000 0.000000
1.700000 0.400000 0.000000
1.800000 0.400000 0.000000
1.900000 0.400000 0.000000
2.000000 0.400000 0.000000
2.100000 0.400000 0.000000
2.200000 0.400000 0.000000
2.300000 0.400000 0.000000
2.400000 0.400000 0.000000
2.500000 0.400000 0.000000
2.600000 0.400000 0.000000
2.700000 0.400000 0.000000
2.800000 0.400000 0.000000
2.900000 0.400000 0.000000
3.000000 0.400000 0.000000
3.100000 0.400000 0.000000
3.200000 0.400000 0.000000
3.300000 0.400000 0.000000
3.400000 0.400000 0.000000
3.500000 0.400000 0.000000
3.600000 0.400000 0.000000
3.700000 0.400000 0.000000
3.800000 0.400000 0.000000
3.900000 0.400000 0.000000
4.000000 0.400000 0.000000
0.000000 0.500000 0.000000
0.100000 0.500000 0.000000
0.200000 0.500000 0.000000
0.300000 0.500000 0.000000
0.400000 0.500000 0.000000
0.500000 0.500000 0.000000
0.600000 0.500000 0.000000
0.700000 0.500000 0.000000
0.800000 0.500000 0.000000
0.900000 0.500000 0.000000
1.000000 0.500000 0.000000
1.100000 0.500000 0.000000
1.200000 0.500000 0.000000
1.300000 0.500000 0.000000
1.400000 0.500000 0.000000
1.500000 0.500000 0.000000
1.600000 0.500000 0.000000
1.700000 0.500000 0.000000
1.800000 0.500000 0.000000
1.900000 0.500000 0.000000
2.000000 0.500000 0.000000
2.100000 0.500000 0.000000
2.200000 0.500000 0.000000
2.300000 0.500000 0.000000
2.400000 0.500000 0.000000
2.500000 0.500000 0.000000
2.600000 0.500000 0.000000
2.700000 0.500000 0.000000
2.800000 0.500000 0.000000
2.900000 0.500000 0.000000
3.000000 0.500000 0.000000
3.100000 0.500000 0.000000
3.200000 0.500000 0.000000
3.300000 0.500000 0.000000
3.400000 0.500000 0.000000
3.500000 0.500000 0.000000
3.600000 0.500000 0.000000
3.700000 0.500000 0.000000
3.800000 0.500000 0.000000
3.900000 0.500000 0.000000
4.000000 0.500000 0.000000
0.000000 0.600000 0.000000
0.100000 0.600000 0.000000
0.200000 0.600000 0.000000
0.300000 0.600000 0.000000
0.400000 0.600000 0.000000
0.500000 0.600000 0.000000
0.600000 0.600000 0.000000
0.700000 0.600000 0.000000
0.800000 0.600000 0.000000
0.900000 0.600000 0.000000
1.000000 0.600000 0.000000
1.100000 0.600000 0.000000
1.200000 0.600000 0.000000
1.300000 0.600000 0.000000
1.400000 0.600000 0.000000
1.500000 0.600000 0.000000
1.600000 0.600000 0.000000
1.700000 0.600000 0.000000
1.800000 0.600000 0.000000
1.900000 0.600000 0.000000
2.000000 0.600000 0.000000
2.100000 0.600000 0.000000
2.200000 0.600000 0.000000
2.300000 0.600000 0.000000
2.400000 0.600000 0.000000
2.500000 0.600000 0.000000
2.600000 0.600000 0.000000
2.700000 0.600000 0.000000
2.800000 0.600000 0.000000
2.900000 0.600000 0.000000
3.000000 0.600000 0.000000
3.100000 0.600000 0.000000
3.200000 0.600000 0.000000
3.300000 0.600000 0.000000
3.400000 0.600000 0.000000
3.500000 0.600000 0.000000
3.600000 0.600000 0.000000
3.700000 0.600000 0.000000
3.800000 0.600000 0.000000
3.900000 0.600000 0.000000
4.000000 0.600000 0.000000
0.000000 0.700000 0.000000
0.100000 0.700000 0.000000
0.200000 0.700000 0.000000
0.300000 0.700000 0.000000
0.400000 0.700000 0.000000
0.500000 0.700000 0.000000
0.600000 0.700000 0.000000
0.700000 0.700000 0.000000
0.800000 0.700000 0.000000
0.900000 0.700000 0.000000
1.000000 0.700000 0.000000
1.100000 0.700000 0.000000
1.200000 0.700000 0.000000
1.300000 0.700000 0.000000
1.400000 0.700000 0.000000
1.500000 0.700000 0.000000
1.600000 0.700000 0.000000
1.700000 0.700000 0.000000
1.800000 0.700000 0.000000
1.900000 0.700000 0.000000
2.000000 0.700000 0.000000
2.100000 0.700000 0.000000
2.200000 0.700000 0.000000
2.300000 0.700000 0.000000
2.400000 0.700000 0.000000
2.500000 0.700000 0.000000
2.600000 0.700000 0.000000
2.700000 0.700000 0.000000
2.800000 0.700000 0.000000
2.900000 0.700000 0.000000
3.000000 0.700000 0.000000
3.100000 0.700000 0.000000
3.200000 0.700000 0.000000
3.300000 0.700000 0.000000
3.400000 0.700000 0.000000
3.500000 0.700000 0.000000
3.600000 0.700000 0.000000
3.700000 0.700000 0.000000
3.800000 0.700000 0.000000
3.900000 0.700000 0.000000
4.000000 0.700000 0.000000
0.000000 0.800000 0.000000
0.100000 0.800000 0.000000
0.200000 0.800000 0.000000
0.300000 0.800000 0.000000
0.400000 0.800000 0.000000
0.500000 0.800000 0.000000
0.600000 0.800000 0.000000
0.700000 0.800000 0.000000
0.800000 0.800000 0.000000
0.900000 0.800000 0.000000
1.000000 0.800000 0.000000
1.100000 0.800000 0.000000
1.200000 0.800000 0.000000
1.300000 0.800000 0.000000
1.400000 0.800000 0.000000
1.500000 0.800000 0.000000
1.600000 0.800000 0.000000
1.700000 0.800000 0.000000
1.800000 0.800000 0.000000
1.900000 0.800000 0.000000
2.000000 0.800000 0.000000
2.100000 0.800000 0.000000
2.200000 0.800000 0.000000
2.300000 0.800000 0.000000
2.400000 0.800000 0.000000
2.500000 0.800000 0.000000
2.600000 0.800000 0.000000
2.700000 0.800000 0.000000
2.800000 0.800000 0.000000
2.900000 0.800000 0.000000
3.000000 0.800000 0.000000
3.100000 0.800000 0.000000
3.200000 0.800000 0.000000
3.300000 0.800000 0.000000
3.400000 0.800000 0.000000
3.500000 0.800000 0.000000
3.600000 0.800000 0.000000
[...]
CELL_DATA 16000
SCALARS pressure float 1
LOOKUP_TABLE default
34.6697
34.4929
34.1559
33.692
33.127
32.4771
31.75
30.9468
30.0639
29.0953
28.0354
26.8822
25.6401
24.3218
22.949
21.5501
20.1566
18.7983
17.4993
16.2753
15.1334
14.0729
13.0875
12.1675
11.302
10.48
9.69153
8.92831
8.1835
7.4518
6.72921
6.01281
5.3005
4.59084
3.88283
3.17583
2.46942
1.76338
1.05764
0.352272
34.7253
34.5231
34.1721
33.7006
33.1314
32.4794
31.7514
30.9481
30.0657
29.0978
28.0386
26.8857
25.6432
24.3241
22.9498
21.5492
20.1542
18.7949
17.4956
16.2718
15.1305
14.0708
13.0863
12.167
11.302
10.4804
9.69215
8.92901
8.1842
7.45244
6.72977
6.01328
5.30089
4.59115
3.88307
3.17601
2.46955
1.76347
1.05767
0.352223
34.8456
34.6067
34.2316
33.7448
33.1667
32.5106
31.782
30.9806
30.1014
29.1366
28.079
26.9246
25.6765
24.3475
22.9601
21.545
20.1364
18.7665
17.4607
16.2347
15.0947
14.0387
13.059
12.145
11.285
10.4677
9.68297
8.92259
8.17983
7.44957
6.72794
6.01217
5.30025
4.59081
3.88291
3.17595
2.46954
1.76345
1.05762
0.352122
35.0088
34.7277
34.3227
33.8163
33.227
32.5663
31.8385
31.0416
30.1686
29.2097
28.1547
26.9972
25.7383
24.3904
22.9781
21.5356
20.1016
18.7122
17.3945
16.1645
15.0269
13.9778
13.0073
12.1032
11.2524
10.4431
9.66505
8.90985
8.17102
7.44362
6.72404
6.00968
5.29872
4.5899
3.88241
3.17569
2.4694
1.76337
1.05753
0.352034
35.1938
34.8706
34.4342
33.9069
33.3061
32.6417
31.9166
31.127
30.2637
29.3136
28.2627
27.1007
25.8261
24.4508
23.0022
21.5199
20.0495
18.6322
17.2981
16.0631
14.9298
13.891
12.9341
12.044
11.2065
10.4086
9.6398
8.89189
8.15855
7.43517
6.71846
6.00608
5.29647
4.58856
3.88163
3.17526
2.46918
1.76324
1.05745
0.35198
35.3813
35.02
34.5539
34.0069
33.3956
32.7291
32.0089
31.2295
30.3789
29.4403
28.3951
27.2281
25.9342
24.5248
23.0306
21.4985
19.9825
18.5311
17.1776
15.9376
14.8105
13.7853
12.8453
11.9728
11.1514
10.3673
9.60973
8.87053
8.14373
7.42513
6.71181
6.00179
5.29378
4.58692
3.88068
3.17474
2.4689
1.76311
1.05739
0.35196
35.5543
35.1608
34.6693
34.1053
33.4856
32.8188
32.1053
31.3378
30.5018
29.5766
28.5385
27.3669
26.0524
24.6055
23.0608
21.4732
19.9072
18.4188
17.0452
15.8008
14.6818
13.6721
12.7509
11.8975
11.0934
10.324
9.57833
8.84828
8.12833
7.4147
6.70491
5.99734
5.29098
4.58522
3.87969
3.17419
2.46862
1.76298
1.05734
0.351969
35.698
35.2798
34.7684
34.1912
33.5656
32.8997
32.1933
31.4378
30.6163
29.7047
28.6743
27.4993
26.1657
24.6829
23.0892
21.4479
19.8336
18.3103
16.9183
15.671
14.5605
13.5662
12.6633
11.828
11.0402
10.2845
9.54972
8.82807
8.11436
7.40526
6.69867
5.99331
5.28846
4.58369
3.87879
3.17369
2.46837
1.76287
1.05732
0.351994
35.8007
35.3657
34.8407
34.2547
33.6254
32.961
32.2607
31.515
30.7054
29.805
28.7814
27.6043
26.2561
24.7448
23.1118
21.4271
19.7741
18.2233
16.8174
15.5686
14.4655
13.4838
12.5955
11.7744
10.9994
10.2543
9.52791
8.8127
8.10377
7.39812
6.69395
5.99027
5.28655
4.58253
3.87812
3.17332
2.46818
1.76279
1.05731
0.352021
35.8542
35.4107
34.8789
34.2885
33.6575
32.9941
32.2973
31.5571
30.7542
29.8602
28.8407
27.6627
26.3065
24.7795
23.1244
21.4153
19.7407
18.1747
16.7613
15.5119
14.4132
13.4387
12.5585
11.7453
10.9772
10.2379
9.51615
8.80443
8.09808
7.39428
6.69143
5.98865
5.28553
4.58191
3.87776
3.17313
2.46809
1.76275
1.0573
0.352039
35.8543
35.4108
34.879
34.2886
33.6576
32.9942
32.2974
31.5572
30.7543
29.8603
28.8408
27.6627
26.3065
24.7795
23.1244
21.4153
19.7407
18.1748
16.7614
15.512
14.4133
13.4388
12.5586
11.7454
10.9773
10.238
9.51622
8.80448
8.09812
7.39432
6.69145
5.98867
5.28555
4.58192
3.87777
3.17313
2.46809
1.76276
1.0573
0.35204
35.8009
35.3659
34.8409
34.2549
33.6256
32.9612
32.2609
31.5152
30.7056
29.8052
28.7816
27.6044
26.2561
24.7449
23.1118
21.4272
19.7743
18.2235
16.8177
15.5689
14.4658
13.4842
12.5958
11.7747
10.9996
10.2545
9.5281
8.81286
8.1039
7.39822
6.69404
5.99034
5.2866
4.58256
3.87815
3.17334
2.4682
1.7628
1.05731
0.352024
35.6983
35.2801
34.7687
34.1915
33.5659
32.9001
32.1937
31.4382
30.6167
29.705
28.6747
27.4995
26.1659
24.6831
23.0894
21.4481
19.8338
18.3107
16.9187
15.6715
14.561
13.5668
12.6638
11.8284
11.0406
10.2849
9.55002
8.82832
8.11457
7.40543
6.69881
5.99342
5.28854
4.58375
3.87884
3.17372
2.46839
1.76288
1.05732
0.351999
35.5547
35.1612
34.6697
34.1057
33.4861
32.8193
32.1058
31.3383
30.5023
29.5771
28.539
27.3673
26.0528
24.6058
23.0611
21.4736
19.9076
18.4194
17.0458
15.8015
14.6825
13.6728
12.7516
11.8981
11.0939
10.3245
9.57873
8.84862
8.12861
7.41493
6.70509
5.99748
5.29109
4.5853
3.87975
3.17423
2.46865
1.76299
1.05735
0.351975
35.3818
35.0205
34.5544
34.0073
33.3961
32.7296
32.0095
31.2301
30.3796
29.4409
28.3957
27.2287
25.9347
24.5252
23.031
21.4989
19.9831
18.5317
17.1784
15.9384
14.8113
13.7861
12.8461
11.9735
11.152
10.3678
9.6102
8.87092
8.14406
7.42539
6.71202
6.00196
5.2939
4.58701
3.88075
3.17478
2.46893
1.76312
1.05739
0.351966
35.1943
34.8712
34.4347
33.9075
33.3066
32.6423
31.9172
31.1277
30.2644
29.3143
28.2634
27.1013
25.8266
24.4514
23.0028
21.5205
20.0501
18.6329
17.2989
16.064
14.9307
13.8919
12.9349
12.0448
11.2072
10.4092
9.64033
8.89233
8.15891
7.43546
6.71868
6.00626
5.29661
4.58865
3.8817
3.17531
2.46921
1.76326
1.05746
0.351985
35.0094
34.7283
34.3233
33.8169
33.2277
32.567
31.8392
31.0423
30.1694
29.2105
28.1555
26.9979
25.7389
24.391
22.9787
21.5362
20.1023
18.713
17.3953
16.1654
15.0278
13.9787
13.0082
12.104
11.2532
10.4438
9.66559
8.9103
8.17139
7.44392
6.72427
6.00986
5.29885
4.59
3.88248
3.17573
2.46943
1.76338
1.05754
0.352039
34.8462
34.6073
34.2322
33.7454
33.1674
32.5112
31.7827
30.9814
30.1022
29.1374
28.0797
26.9253
25.6773
24.3482
22.9608
21.5457
20.1372
18.7674
17.4616
16.2357
15.0956
14.0396
13.0599
12.1459
11.2857
10.4683
9.68351
8.92304
8.1802
7.44986
6.72817
6.01234
5.30038
4.5909
3.88298
3.17599
2.46956
1.76346
1.05762
0.352124
34.7259
34.5236
34.1727
33.7012
33.132
32.48
31.7521
30.9489
30.0664
29.0986
28.0393
26.8864
25.644
24.3248
22.9506
21.55
20.155
18.7958
17.4965
16.2727
15.1315
14.0717
13.0871
12.1678
11.3027
10.481
9.69267
8.92945
8.18456
7.45273
6.72999
6.01345
5.30101
4.59123
3.88313
3.17604
2.46957
1.76347
1.05767
0.352222
34.6703
34.4935
34.1565
33.6926
33.1276
32.4777
31.7507
30.9475
30.0647
29.0961
28.0362
26.883
25.6408
24.3225
22.9497
21.5508
20.1574
18.7991
17.5001
16.2762
15.1343
14.0737
13.0883
12.1683
11.3027
10.4805
9.69203
8.92873
8.18384
7.45207
6.72942
6.01297
5.30062
4.59092
3.88289
3.17586
2.46943
1.76338
1.05764
0.352268
34.7253
34.5231
34.1721
33.7006
33.1314
32.4793
31.7514
30.9481
30.0657
29.0978
28.0385
26.8856
25.6432
24.324
22.9498
21.5492
20.1542
18.7949
17.4956
16.2718
15.1305
14.0709
13.0863
12.167
11.3021
10.4804
9.69215
8.92902
8.1842
7.45244
6.72977
6.01328
5.30089
4.59115
3.88307
3.17601
2.46955
1.76347
1.05767
0.352223
34.7689
34.5283
34.1584
33.6782
33.1047
32.4499
31.7195
30.9139
30.0294
29.0603
28.0015
26.8513
25.6144
24.3033
22.9392
21.5496
20.1652
18.815
17.5224
16.3025
15.1624
14.1018
13.1147
12.1919
11.3231
10.4976
9.7059
8.93973
8.19237
7.45856
6.73427
6.01654
5.30321
4.59278
3.88421
3.1768
2.4701
1.76386
1.05794
0.352298
34.8851
34.5985
34.1998
33.7021
33.1185
32.4581
31.7252
30.9191
30.0353
29.0675
28.0098
26.8599
25.6218
24.3081
22.9401
21.5463
20.1582
18.8057
17.5122
16.2929
15.1545
14.0959
13.1109
12.19
11.3226
10.4981
9.70704
8.94115
8.19387
7.45999
6.73555
6.01764
5.30412
4.59352
3.88479
3.17725
2.47044
1.76409
1.05806
0.35228
35.0514
34.713
34.2801
33.7603
33.1635
32.4966
31.762
30.9575
30.0771
29.1128
28.0568
26.9048
25.6597
24.3337
22.9495
21.538
20.1339
18.7692
17.4689
16.2479
15.1119
14.0584
13.0797
12.1654
11.304
10.4846
9.69757
8.93479
8.18978
7.45748
6.73412
6.0169
5.30382
4.59347
3.88487
3.17739
2.47058
1.7642
1.05812
0.352262
35.2433
34.8531
34.3846
33.8414
33.2308
32.5578
31.8229
31.0224
30.1481
29.1895
28.1358
26.98
25.7226
24.376
22.9648
21.5239
20.0931
18.7084
17.3966
16.1726
15.0401
13.9946
13.0261
12.1224
11.2708
10.4599
9.67976
8.92232
8.1813
7.4519
6.73057
6.01473
5.30257
4.5928
3.88456
3.17728
2.47058
1.76424
1.05815
0.352271
35.439
35.0014
34.4993
33.934
33.3107
32.6328
31.8996
31.1052
30.2393
29.2884
28.238
27.0773
25.8042
24.4306
22.984
21.5046
20.0391
18.6287
17.3024
16.0749
14.9475
13.9125
12.9572
12.067
11.228
10.4279
9.65646
8.90585
8.16996
7.4443
6.72562
6.01161
5.30068
4.59171
3.88398
3.177
2.47047
1.76422
1.05817
0.35231
35.6198
35.1419
34.6109
34.0264
33.3925
32.7115
31.9814
31.1947
30.3388
29.397
28.3509
27.1854
25.8952
24.4915
23.0048
21.482
19.9776
18.5389
17.1973
15.9667
14.8456
13.8227
12.8821
12.0069
11.1816
10.3931
9.63119
8.88794
8.15759
7.43596
6.72014
6.00812
5.29852
4.59044
3.88327
3.17664
2.47031
1.76417
1.05818
0.352371
35.77
35.2607
34.707
34.1074
33.4656
32.7831
32.0568
31.2781
30.4324
29.5
28.4587
27.2893
25.9832
24.5505
23.0247
21.4594
19.9173
18.4516
17.0961
15.8634
14.749
13.7382
12.8118
11.9508
11.1384
10.3608
9.60774
8.87133
8.14609
7.42819
6.71503
6.00484
5.29648
4.58922
3.88258
3.17628
2.47015
1.76412
1.0582
0.352437
35.8774
35.3467
34.7774
34.1676
33.5206
32.8375
32.1148
31.3428
30.5054
29.5808
28.544
27.3721
26.0537
24.598
23.0407
21.4409
19.8684
18.3815
17.0155
15.7818
14.6733
13.6722
12.7572
11.9074
11.1051
10.336
9.58973
8.85858
8.13727
7.42223
6.7111
6.00231
5.29491
4.58828
3.88204
3.17599
2.47002
1.76408
1.05822
0.352494
35.9333
35.3917
34.8145
34.1995
33.55
32.8669
32.1463
31.3781
30.5455
29.6254
28.5912
27.4183
26.0933
24.6247
23.0496
21.4304
19.8409
18.3422
16.9707
15.7367
14.6316
13.6361
12.7274
11.8838
11.087
10.3226
9.57999
8.85168
8.13251
7.41902
6.70897
6.00095
5.29406
4.58777
3.88175
3.17584
2.46995
1.76406
1.05822
0.352526
35.9333
35.3918
34.8146
34.1996
33.5501
32.867
32.1463
31.3781
30.5455
29.6255
28.5913
27.4183
26.0933
24.6247
23.0497
21.4304
19.8409
18.3423
16.9708
15.7368
14.6317
13.6362
12.7275
11.8839
11.0871
10.3227
9.58005
8.85173
8.13255
7.41905
6.709
6.00097
5.29408
4.58778
3.88176
3.17585
2.46995
1.76406
1.05822
0.352526
35.8776
35.3468
34.7776
34.1677
33.5207
32.8377
32.115
31.343
30.5056
29.581
28.5442
27.3723
26.0538
24.5981
23.0408
21.441
19.8686
18.3817
17.0158
15.7821
14.6736
13.6726
12.7575
11.9077
11.1053
10.3362
9.58991
8.85872
8.13739
7.42233
6.71117
6.00238
5.29496
4.58831
3.88207
3.17601
2.47003
1.76409
1.05822
0.352493
35.7703
35.261
34.7073
34.1077
33.4659
32.7834
32.0572
31.2785
30.4328
29.5003
28.459
27.2896
25.9834
24.5506
23.0249
21.4597
19.9176
18.452
17.0966
15.8639
14.7495
13.7387
12.8123
11.9512
11.1387
10.3612
9.60803
8.87157
8.14629
7.42835
6.71515
6.00494
5.29656
4.58928
3.88262
3.17631
2.47017
1.76413
1.0582
0.352437
35.6202
35.1423
34.6113
34.0268
33.3929
32.7119
31.9818
31.1952
30.3393
29.3975
28.3514
27.1858
25.8956
24.4918
23.0051
21.4824
19.978
18.5394
17.1979
15.9673
14.8462
13.8234
12.8827
12.0074
11.1821
10.3935
9.63156
8.88826
8.15784
7.43617
6.72031
6.00825
5.29862
4.59051
3.88332
3.17667
2.47033
1.76418
1.05818
0.35237
35.4395
35.0019
34.4998
33.9344
33.3111
32.6333
31.9001
31.1058
30.2399
29.289
28.2386
27.0778
25.8047
24.4311
22.9844
21.5051
20.0396
18.6293
17.3031
16.0756
14.9482
13.9132
12.9579
12.0677
11.2286
10.4284
9.6569
8.90622
8.17027
7.44455
6.72582
6.01177
5.30079
4.5918
3.88404
3.17704
2.4705
1.76423
1.05816
0.352309
35.2438
34.8537
34.3851
33.8419
33.2314
32.5584
31.8236
31.0231
30.1488
29.1902
28.1365
26.9806
25.7232
24.3765
22.9653
21.5245
20.0937
18.7091
17.3974
16.1733
15.0409
13.9954
13.0269
12.1231
11.2715
10.4605
9.68024
8.92273
8.18164
7.45217
6.73079
6.0149
5.3027
4.59289
3.88463
3.17732
2.4706
1.76425
1.05814
0.35227
35.0519
34.7136
34.2806
33.7609
33.1641
32.4972
31.7626
30.9582
30.0778
29.1135
28.0575
26.9055
25.6603
24.3343
22.9501
21.5387
20.1346
18.77
17.4697
16.2488
15.1127
14.0592
13.0805
12.1661
11.3047
10.4852
9.69808
8.93522
8.19013
7.45777
6.73435
6.01708
5.30395
4.59357
3.88494
3.17743
2.47061
1.76421
1.05812
0.35226
34.8857
34.5991
34.2004
33.7027
33.1191
32.4588
31.7259
30.9198
30.036
29.0683
28.0106
26.8607
25.6226
24.3088
22.9408
21.547
20.159
18.8065
17.513
16.2938
15.1554
14.0968
13.1117
12.1908
11.3233
10.4987
9.70755
8.94159
8.19423
7.46027
6.73578
6.01781
5.30425
4.59361
3.88485
3.17729
2.47046
1.7641
1.05806
0.352277
34.7695
34.5289
34.159
33.6788
33.1053
32.4506
31.7202
30.9146
30.0301
29.0611
28.0023
26.8521
25.6151
24.304
22.9399
21.5503
20.166
18.8159
17.5232
16.3034
15.1633
14.1026
13.1155
12.1927
11.3238
10.4982
9.70641
8.94015
8.19271
7.45883
6.73448
6.0167
5.30333
4.59287
3.88427
3.17683
2.47012
1.76386
1.05793
0.352295
34.7259
34.5236
34.1727
33.7011
33.132
32.48
31.7521
30.9488
30.0664
29.0986
28.0393
26.8864
25.644
24.3248
22.9505
21.55
20.155
18.7958
17.4964
16.2727
15.1314
14.0717
13.0871
12.1678
11.3027
10.4809
9.69263
8.92942
8.18453
7.4527
6.72997
6.01343
5.301
4.59122
3.88312
3.17603
2.46956
1.76346
1.05766
0.352216
34.8456
34.6067
34.2316
33.7448
33.1667
32.5106
31.782
30.9806
30.1013
29.1366
28.0789
26.9245
25.6765
24.3474
22.9601
21.5449
20.1364
18.7666
17.4607
16.2347
15.0947
14.0387
13.0591
12.1451
11.2851
10.4677
9.68299
8.9226
8.17984
7.44957
6.72795
6.01217
5.30025
4.59081
3.88291
3.17595
2.46954
1.76345
1.05762
0.352123
34.8851
34.5985
34.1998
33.7021
33.1184
32.4581
31.7252
30.9191
30.0353
29.0675
28.0098
26.8599
25.6218
24.3081
22.9401
21.5463
20.1582
18.8057
17.5122
16.293
15.1545
14.0959
13.1109
12.1901
11.3226
10.4982
9.70705
8.94116
8.19388
7.45999
6.73556
6.01764
5.30412
4.59352
3.88479
3.17725
2.47044
1.76409
1.05806
0.35228
34.997
34.6597
34.2283
33.7106
33.115
32.4475
31.7103
30.9018
30.0171
29.0495
27.9931
26.8453
25.6097
24.2987
22.9337
21.5432
20.1588
18.8101
17.5205
16.3046
15.1686
14.1113
13.1264
12.2049
11.3361
10.51
9.71707
8.94942
8.20052
7.46523
6.73961
6.02072
5.30644
4.59524
3.88605
3.17817
2.4711
1.76456
1.05834
0.352311
35.1635
34.7697
34.3002
33.7579
33.1473
32.4716
31.7311
30.9228
30.0403
29.0756
28.0213
26.8728
25.6328
24.3132
22.9365
21.5334
20.1382
18.7825
17.49
16.2751
15.1427
14.0904
13.1107
12.1939
11.329
10.5059
9.71506
8.94883
8.2008
7.46597
6.74055
6.0217
5.30736
4.59604
3.88673
3.17872
2.47153
1.76487
1.05852
0.352342
35.3599
34.9087
34.3999
33.8316
33.2053
32.5219
31.7798
30.9742
30.097
29.1378
28.0863
26.9352
25.6848
24.3466
22.9453
21.5159
20.0976
18.7258
17.4258
16.2108
15.0837
14.0399
13.0698
12.1623
11.3056
10.4891
9.70358
8.94126
8.19603
7.46315
6.73902
6.02099
5.30714
4.59611
3.88693
3.17897
2.47178
1.76507
1.05866
0.352406
35.5628
35.0582
34.5121
33.9192
33.2785
32.5888
31.8471
31.0467
30.1775
29.2262
28.1788
27.0241
25.7591
24.3946
22.9582
21.4911
20.0401
18.6459
17.3353
16.1203
15.0007
13.9684
13.0114
12.1165
11.2711
10.4639
9.68573
8.92901
8.18788
7.45792
6.7358
6.01911
5.30613
4.59564
3.88678
3.17899
2.47188
1.7652
1.05878
0.352504
35.7515
35.201
34.6226
34.0084
33.3555
32.6615
31.9219
31.1286
30.2693
29.3279
28.2862
27.1282
25.8467
24.4514
22.9732
21.4612
19.9717
18.5518
17.23
16.016
14.9057
13.8871
12.9451
12.0645
11.2317
10.435
9.66509
8.91466
8.17819
7.45156
6.73176
6.01665
5.30471
4.59488
3.88644
3.17888
2.4719
1.76528
1.05888
0.352624
35.909
35.3224
34.7184
34.0874
33.4253
32.7288
31.9924
31.2068
30.358
29.4272
28.3922
27.2321
25.9353
24.5095
22.9885
21.4303
19.9017
18.4569
17.1253
15.9136
14.8134
13.8088
12.8816
12.0149
11.1942
10.4074
9.64537
8.90091
8.16884
7.44537
6.72778
6.01419
5.30325
4.59407
3.88603
3.17872
2.47187
1.76532
1.05897
0.352744
36.0218
35.4104
34.7888
34.1463
33.4781
32.7804
32.0471
31.2682
30.4283
29.5067
28.4781
27.3176
26.0092
24.5586
23.0015
21.404
19.8429
18.3782
17.0398
15.8312
14.74
13.7469
12.8317
11.9761
11.1649
10.386
9.63001
8.89018
8.16153
7.44051
6.72465
6.01223
5.30208
4.59341
3.88568
3.17857
2.47183
1.76535
1.05903
0.35284
36.0806
35.4566
34.826
34.1777
33.5065
32.8084
32.0771
31.302
30.4672
29.551
28.5264
27.3661
26.0518
24.5872
23.0091
21.3887
19.8087
18.3332
16.9915
15.7851
14.6992
13.7128
12.8043
11.9549
11.149
10.3743
9.62164
8.88434
8.15755
7.43787
6.72294
6.01116
5.30144
4.59304
3.88549
3.17848
2.47181
1.76536
1.05907
0.352893
36.0806
35.4567
34.8261
34.1777
33.5066
32.8085
32.0771
31.302
30.4673
29.551
28.5264
27.3661
26.0518
24.5872
23.0091
21.3888
19.8088
18.3333
16.9916
15.7852
14.6993
13.7129
12.8044
11.955
11.1491
10.3743
9.6217
8.88439
8.15759
7.4379
6.72297
6.01118
5.30145
4.59305
3.8855
3.17849
2.47181
1.76536
1.05907
0.352893
36.022
35.4106
34.789
34.1465
33.4783
32.7806
32.0473
31.2684
30.4285
29.5069
28.4782
27.3177
26.0093
24.5586
23.0015
21.4041
19.8431
18.3785
17.0401
15.8315
14.7403
13.7472
12.832
11.9764
11.1652
10.3862
9.63018
8.89032
8.16165
7.44061
6.72473
6.01229
5.30212
4.59344
3.88571
3.17858
2.47185
1.76536
1.05903
0.352838
35.9093
35.3227
34.7187
34.0877
33.4256
32.7291
31.9927
31.2072
30.3584
29.4275
28.3925
27.2324
25.9355
24.5096
22.9886
21.4305
19.902
18.4573
17.1257
15.9141
14.814
13.8092
12.882
12.0153
11.1946
10.4078
9.64564
8.90114
8.16903
7.44552
6.72791
6.01428
5.30333
4.59413
3.88607
3.17874
2.47189
1.76533
1.05897
0.352741
35.7519
35.2014
34.623
34.0088
33.3559
32.6619
31.9223
31.1291
30.2699
29.3285
28.2867
27.1286
25.847
24.4517
22.9735
21.4615
19.9721
18.5523
17.2305
16.0166
14.9063
13.8877
12.9457
12.0651
11.2322
10.4354
9.66545
8.91497
8.17844
7.45176
6.73192
6.01678
5.30481
4.59496
3.88649
3.17892
2.47192
1.76529
1.05888
0.35262
35.5633
35.0587
34.5126
33.9197
33.279
32.5893
31.8476
31.0473
30.1781
29.2269
28.1795
27.0247
25.7596
24.395
22.9586
21.4915
20.0407
18.6465
17.336
16.121
15.0014
13.9691
13.0121
12.1171
11.2716
10.4644
9.68615
8.92936
8.18818
7.45816
6.73599
6.01926
5.30625
4.59573
3.88685
3.17904
2.47191
1.76521
1.05878
0.352499
35.3605
34.9092
34.4004
33.8322
33.2059
32.5225
31.7805
30.9749
30.0977
29.1386
28.087
26.9359
25.6854
24.3472
22.9459
21.5164
20.0983
18.7265
17.4265
16.2115
15.0845
14.0406
13.0706
12.1629
11.3062
10.4897
9.70405
8.94166
8.19636
7.46342
6.73923
6.02115
5.30727
4.5962
3.887
3.17901
2.4718
1.76509
1.05866
0.352399
35.1641
34.7703
34.3008
33.7585
33.1479
32.4722
31.7318
30.9235
30.041
29.0764
28.022
26.8735
25.6334
24.3138
22.9371
21.534
20.1389
18.7832
17.4908
16.276
15.1435
14.0912
13.1115
12.1946
11.3297
10.5064
9.71556
8.94925
8.20114
7.46625
6.74077
6.02187
5.30748
4.59613
3.8868
3.17876
2.47156
1.76488
1.05852
0.352335
34.9976
34.6603
34.2289
33.7112
33.1157
32.4482
31.711
30.9026
30.0179
29.0503
27.9939
26.846
25.6104
24.2994
22.9344
21.5439
20.1595
18.811
17.5214
16.3055
15.1694
14.1121
13.1273
12.2056
11.3368
10.5106
9.71757
8.94984
8.20087
7.46551
6.73983
6.02089
5.30656
4.59532
3.88611
3.1782
2.47112
1.76456
1.05833
0.352304
34.8857
34.5991
34.2004
33.7027
33.1191
32.4587
31.7259
30.9198
30.036
29.0683
28.0106
26.8607
25.6226
24.3088
22.9409
21.547
20.159
18.8065
17.5131
16.2939
15.1554
14.0968
13.1117
12.1908
11.3233
10.4987
9.70754
8.94157
8.19421
7.46026
6.73576
6.01779
5.30424
4.5936
3.88484
3.17728
2.47045
1.76409
1.05805
0.352272
34.8462
34.6073
34.2322
33.7453
33.1673
32.5112
31.7827
30.9814
30.1021
29.1374
28.0797
26.9253
25.6772
24.3482
22.9608
21.5457
20.1372
18.7674
17.4616
16.2356
15.0956
14.0395
13.0598
12.1458
11.2857
10.4682
9.68345
8.92298
8.18014
7.44981
6.72813
6.0123
5.30034
4.59087
3.88295
3.17597
2.46954
1.76344
1.0576
0.352109
35.0088
34.7277
34.3227
33.8163
33.227
32.5663
31.8385
31.0415
30.1685
29.2096
28.1546
26.997
25.7381
24.3903
22.978
21.5355
20.1016
18.7122
17.3945
16.1645
15.027
13.9779
13.0074
12.1033
11.2525
10.4432
9.66508
8.90987
8.17103
7.44363
6.72405
6.00968
5.29872
4.58991
3.88241
3.17569
2.4694
1.76337
1.05754
0.352035
35.0513
34.713
34.28
33.7603
33.1635
32.4966
31.7619
30.9574
30.077
29.1127
28.0567
26.9047
25.6595
24.3336
22.9494
21.538
20.1338
18.7692
17.4689
16.248
15.1119
14.0584
13.0798
12.1654
11.304
10.4846
9.69759
8.93481
8.18979
7.45749
6.73413
6.01691
5.30383
4.59347
3.88488
3.17739
2.47058
1.7642
1.05812
0.352262
35.1635
34.7697
34.3002
33.7579
33.1473
32.4716
31.7311
30.9227
30.0402
29.0756
28.0212
26.8727
25.6327
24.3131
22.9364
21.5333
20.1382
18.7825
17.49
16.2751
15.1427
14.0904
13.1108
12.1939
11.3291
10.5059
9.71507
8.94884
8.2008
7.46598
6.74055
6.0217
5.30736
4.59604
3.88673
3.17872
2.47153