# vtk DataFile Version 2.0
I need something to put here
ASCII

DATASET STRUCTURED_GRID
DIMENSIONS 41 21 21
POINTS 18081 float
0.000000 0.000000 0.000000
0.100000 0.000000 0.000000
0.200000 0.000000 0.000000
0.300000 0.000000 0.000000
0.400000 0.000000 0.000000
0.500000 0.000000 0.000000
0.600000 0.000000 0.000000
0.700000 0.000000 0.000000
0.800000 0.000000 0.000000
0.900000 0.000000 0.000000
1.000000 0.000000 0.000000
1.100000 0.000000 0.000000
1.200000 0.000000 0.000000
1.300000 0.000000 0.000000
1.400000 0.000000 0.000000
1.500000 0.000000 0.000000
1.600000 0.000000 0.000000
1.700000 0.000000 0.000000
1.800000 0.000000 0.000000
1.900000 0.000000 0.000000
2.000000 0.000000 0.000000
2.100000 0.000000 0.000000
2.200000 0.000000 0.000000
2.300000 0.000000 0.000000
2.400000 0.000000 0.000000
2.500000 0.000000 0.000000
2.600000 0.000000 0.000000
2.700000 0.000000 0.000000
2.800000 0.000000 0.000000
2.900000 0.000000 0.000000
3.000000 0.000000 0.000000
3.100000 0.000000 0.000000
3.200000 0.000000 0.000000
3.300000 0.000000 0.000000
3.400000 0.000000 0.000000
3.500000 0.000000 0.000000
3.600000 0.000000 0.000000
3.700000 0.000000 0.000000
3.800000 0.000000 0.000000
3.900000 0.000000 0.000000
4.000000 0.000000 0.000000
0.000000 0.100000 0.000000
0.100000 0.100000 0.000000
0.200000 0.100000 0.000000
0.300000 0.100000 0.000000
0.400000 0.100000 0.000000
0.500000 0.100000 0.000000
0.600000 0.100000 0.000000
0.700000 0.100000 0.000000
0.800000 0.100000 0.000000
0.900000 0.100000 0.000000
1.000000 0.100000 0.000000
1.100000 0.100000 0.000000
1.200000 0.100000 0.000000
1.300000 0.100000 0.000000
1.400000 0.100000 0.000000
1.500000 0.100000 0.000000
1.600000 0.100000 0.000000
1.700000 0.100000 0.000000
1.800000 0.100000 0.000000
1.900000 0.100000 0.000000
2.000000 0.100000 0.000000
2.100000 0.100000 0.000000
2.200000 0.100000 0.000000
2.300000 0.100000 0.000000
2.400000 0.100000 0.000000
2.500000 0.100000 0.000000
2.600000 0.100000 0.000000
2.700000 0.100000 0.000000
2.800000 0.100000 0.000000
2.900000 0.100000 0.000000
3.000000 0.100000 0.000000
3.100000 0.100000 0.000000
3.200000 0.100000 0.000000
3.300000 0.100000 0.000000
3.400000 0.100000 0.000000
3.500000 0.100000 0.000000
3.600000 0.100000 0.000000
3.700000 0.100000 0.000000
3.800000 0.100000 0.000000
3.900000 0.100000 0.000000
4.000000 0.100000 0.000000
0.000000 0.200000 0.000000
0.100000 0.200000 0.000000
0.200000 0.200000 0.000000
0.300000 0.200000 0.000000
0.400000 0.200000 0.000000
0.500000 0.200000 0.000000
0.600000 0.200000 0.000000
0.700000 0.200000 0.000000
0.800000 0.200000 0.000000
0.900000 0.200000 0.000000
1.000000 0.200000 0.000000
1.100000 0.200000 0.000000
1.200000 0.200000 0.000000
1.300000 0.200000 0.000000
1.400000 0.200000 0.000000
1.500000 0.200000 0.000000
1.600000 0.200000 0.000000
1.700000 0.200000 0.000000
1.800000 0.200000 0.000000
1.900000 0.200000 0.000000
2.000000 0.200000 0.000000
2.100000 0.200000 0.000000
2.200000 0.200000 0.000000
2.300000 0.200000 0.000000
2.400000 0.200000 0.000000
2.500000 0.200000 0.000000
2.600000 0.200000 0.000000
2.700000 0.200000 0.000000
2.800000 0.200000 0.000000
2.900000 0.200000 0.000000
3.000000 0.200000 0.000000
3.100000 0.200000 0.000000
3.200000 0.200000 0.000000
3.300000 0.200000 0.000000
3.400000 0.200000 0.000000
3.500000 0.200000 0.000000
3.600000 0.200000 0.000000
3.700000 0.200000 0.000000
3.800000 0.200000 0.000000
3.900000 0.200000 0.000000
4.000000 0.200000 0.000000
0.000000 0.300000 0.000000
0.100000 0.300000 0.000000
0.200000 0.300000 0.000000
0.300000 0.300000 0.000000
0.400000 0.300000 0.000000
0.500000 0.300000 0.000000
0.600000 0.300000 0.000000
0.700000 0.300000 0.000000
0.800000 0.300000 0.000000
0.900000 0.300000 0.000000
1.000000 0.300000 0.000000
1.100000 0.300000 0.000000
1.200000 0.300000 0.000000
1.300000 0.300000 0.000000
1.400000 0.300000 0.000000
1.500000 0.300000 0.000000
1.600000 0.300000 0.000000
1.700000 0.300000 0.000000
1.800000 0.300000 0.000000
1.900000 0.300000 0.000000
2.000000 0.300000 0.000000
2.100000 0.300000 0.000000
2.200000 0.300000 0.000000
2.300000 0.300000 0.000000
2.400000 0.300000 0.000000
2.500000 0.300000 0.000000
2.600000 0.300000 0.000000
2.700000 0.300000 0.000000
2.800000 0.300000 0.000000
2.900000 0.300000 0.000000
3.000000 0.300000 0.000000
3.100000 0.300000 0.000000
3.200000 0.300000 0.000000
3.300000 0.300000 0.000000
3.400000 0.300000 0.000000
3.500000 0.300000 0.000000
3.600000 0.300000 0.000000
3.700000 0.300000 0.000000
3.800000 0.300000 0.000000
3.900000 0.300000 0.000000
4.000000 0.300000 0.000000
0.000000 0.400000 0.000000
0.100000 0.400000 0.000000
0.200000 0.400000 0.000000
0.300000 0.400000 0.000000
0.400000 0.400000 0.000000
0.500000 0.400000 0.000000
0.600000 0.400000 0.000000
0.700000 0.400000 0.000000
0.800000 0.400000 0.000000
0.900000 0.400000 0.000000
1.000000 0.400000 0.000000
1.100000 0.400000 0.000000
1.200000 0.400000 0.000000
1.300000 0.400000 0.000000
1.400000 0.400000 0.000000
1.500000 0.400000 0.000000
1.600000 0.400000 0.000000
1.700000 0.400000 0.000000
1.800000 0.400000 0.000000
1.900000 0.400000 0.000000
2.000000 0.400000 0.000000
2.100000 0.400000 0.000000
2.200000 0.400000 0.000000
2.300000 0.400000 0.000000
2.400000 0.400000 0.000000
2.500000 0.400000 0.000000
2.600000 0.400000 0.000000
2.700000 0.400000 0.000000
2.800000 0.400000 0.000000
2.900000 0.400000 0.000000
3.000000 0.400000 0.000000
3.100000 0.400000 0.000000
3.200000 0.400000 0.000000
3.300000 0.400000 0.000000
3.400000 0.400000 0.000000
3.500000 0.400000 0.000000
3.600000 0.400000 0.000000
3.700000 0.400000 0.000000
3.800000 0.400000 0.000000
3.900000 0.400000 0.000000
4.000000 0.400000 0.000000
0.000000 0.500000 0.000000
0.100000 0.500000 0.000000
0.200000 0.500000 0.000000
0.300000 0.500000 0.000000
0.400000 0.500000 0.000000
0.500000 0.500000 0.000000
0.600000 0.500000 0.000000
0.700000 0.500000 0.000000
0.800000 0.500000 0.000000
0.900000 0.500000 0.000000
1.000000 0.500000 0.000000
1.100000 0.500000 0.000000
1.200000 0.500000 0.000000
1.300000 0.500000 0.000000
1.400000 0.500000 0.000000
1.500000 0.500000 0.000000
1.600000 0.500000 0.000000
1.700000 0.500000 0.000000
1.800000 0.500000 0.000000
1.900000 0.500000 0.000000
2.000000 0.500000 0.000000
2.100000 0.500000 0.000000
2.200000 0.500000 0.000000
2.300000 0.500000 0.000000
2.400000 0.500000 0.000000
2.500000 0.500000 0.000000
2.600000 0.500000 0.000000
2.700000 0.500000 0.000000
2.800000 0.500000 0.000000
2.900000 0.500000 0.000000
3.000000 0.500000 0.000000
3.100000 0.500000 0.000000
3.200000 0.500000 0.000000
3.300000 0.500000 0.000000
3.400000 0.500000 0.000000
3.500000 0.500000 0.000000
3.600000 0.500000 0.000000
3.700000 0.500000 0.000000
3.800000 0.500000 0.000000
3.900000 0.500000 0.000000
4.000000 0.500000 0.000000
0.000000 0.600000 0.000000
0.100000 0.600000 0.000000
0.200000 0.600000 0.000000
0.300000 0.600000 0.000000
0.400000 0.600000 0.000000
0.500000 0.600000 0.000000
0.600000 0.600000 0.000000
0.700000 0.600000 0.000000
0.800000 0.600000 0.000000
0.900000 0.600000 0.000000
1.000000 0.600000 0.000000
1.100000 0.600000 0.000000
1.200000 0.600000 0.000000
1.300000 0.600000 0.000000
1.400000 0.600000 0.000000
1.500000 0.600000 0.000000
1.600000 0.600000 0.000000
1.700000 0.600000 0.000000
1.800000 0.600000 0.000000
1.900000 0.600000 0.000000
2.000000 0.600000 0.000000
2.100000 0.600000 0.000000
2.200000 0.600000 0.000000
2.300000 0.600000 0.000000
2.400000 0.600000 0.000000
2.500000 0.600000 0.000000
2.600000 0.600000 0.000000
2.700000 0.600000 0.000000
2.800000 0.600000 0.000000
2.900000 0.600000 0.000000
3.000000 0.600000 0.000000
3.100000 0.600000 0.000000
3.200000 0.600000 0.000000
3.300000 0.600000 0.000000
3.400000 0.600000 0.000000
3.500000 0.600000 0.000000
3.600000 0.600000 0.000000
3.700000 0.600000 0.000000
3.800000 0.600000 0.000000
3.900000 0.600000 0.000000
4.000000 0.600000 0.000000
0.000000 0.700000 0.000000
0.100000 0.700000 0.000000
0.200000 0.700000 0.000000
0.300000 0.700000 0.000000
0.400000 0.700000 0.000000
0.500000 0.700000 0.000000
0.600000 0.700000 0.000000
0.700000 0.700000 0.000000
0.800000 0.700000 0.000000
0.900000 0.700000 0.000000
1.000000 0.700000 0.000000
1.100000 0.700000 0.000000
1.200000 0.700000 0.000000
1.300000 0.700000 0.000000
1.400000 0.700000 0.000000
1.500000 0.700000 0.000000
1.600000 0.700000 0.000000
1.700000 0.700000 0.000000
1.800000 0.700000 0.000000
1.900000 0.700000 0.000000
2.000000 0.700000 0.000000
2.100000 0.700000 0.000000
2.200000 0.700000 0.000000
2.300000 0.700000 0.000000
2.400000 0.700000 0.000000
2.500000 0.700000 0.000000
2.600000 0.700000 0.000000
2.700000 0.700000 0.000000
2.800000 0.700000 0.000000
2.900000 0.700000 0.000000
3.000000 0.700000 0.000000
3.100000 0.700000 0.000000
3.200000 0.700000 0.000000
3.300000 0.700000 0.000000
3.400000 0.700000 0.000000
3.500000 0.700000 0.000000
3.600000 0.700000 0.000000
3.700000 0.700000 0.000000
3.800000 0.700000 0.000000
3.900000 0.700000 0.000000
4.000000 0.700000 0.000000
0.000000 0.800000 0.000000
0.100000 0.800000 0.000000
0.200000 0.800000 0.000000
0.300000 0.800000 0.000000
0.400000 0.800000 0.000000
0.500000 0.800000 0.000000
0.600000 0.800000 0.000000
0.700000 0.800000 0.000000
0.800000 0.800000 0.000000
0.900000 0.800000 0.000000
1.000000 0.800000 0.000000
1.100000 0.800000 0.000000
1.200000 0.800000 0.000000
1.300000 0.800000 0.000000
1.400000 0.800000 0.000000
1.500000 0.800000 0.000000
1.600000 0.800000 0.000000
1.700000 0.800000 0.000000
1.800000 0.800000 0.000000
1.900000 0.800000 0.000000
2.000000 0.800000 0.000000
2.100000 0.800000 0.000000
2.200000 0.800000 0.000000
2.300000 0.800000 0.000000
2.400000 0.800000 0.000000
2.500000 0.800000 0.000000
2.600000 0.800000 0.000000
2.700000 0.800000 0.000000
2.800000 0.800000 0.000000
2.900000 0.800000 0.000000
3.000000 0.800000 0.000000
3.100000 0.800000 0.000000
3.200000 0.800000 0.000000
3.300000 0.800000 0.000000
3.400000 0.800000 0.000000
3.500000 0.800000 0.000000
3.600000 0.800000 0.000000
[...]
CELL_DATA 16000
SCALARS pressure float 1
LOOKUP_TABLE default
38.3065
38.1331
37.795
37.3201
36.7294
36.0347
35.2395
34.3408
33.3318
32.2056
30.9584
29.5934
28.1228
26.5678
24.9565
23.3215
21.6963
20.1126
18.5975
17.1713
15.8461
14.6254
13.505
12.4754
11.5236
10.6357
9.79844
8.99986
8.23007
7.48113
6.74693
6.02289
5.30572
4.59305
3.88326
3.17528
2.46841
1.76225
1.05666
0.351741
38.3605
38.1628
37.8113
37.3289
36.7343
36.0377
35.2419
34.3434
33.3351
32.2095
30.9626
29.5974
28.1259
26.5695
24.9567
23.3202
21.6937
20.1091
18.5933
17.167
15.8422
14.6223
13.5029
12.4742
11.5232
10.6359
9.79902
9.00065
8.23094
7.48197
6.74769
6.02355
5.30627
4.59349
3.88361
3.17555
2.46861
1.76238
1.05671
0.351655
38.4816
38.2491
37.8753
37.3793
36.7776
36.0789
35.2844
34.3894
33.3848
32.2615
31.0136
29.6431
28.1619
26.5925
24.965
23.3135
21.6731
20.0767
18.5524
17.1213
15.7958
14.5787
13.4644
12.442
11.4976
10.6163
9.78451
8.99027
8.22373
7.47712
6.74453
6.02157
5.30507
4.59281
3.88326
3.17539
2.46853
1.76232
1.05659
0.351477
38.6504
38.3773
37.9757
37.4628
36.853
36.1532
35.3629
34.475
33.4778
32.3586
31.1086
29.7277
28.2281
26.6343
24.9792
23.2997
21.6334
20.015
18.4746
17.0349
15.7083
14.4963
13.3917
12.3812
11.4488
10.5787
9.75646
8.96996
8.20942
7.4673
6.73796
6.01729
5.30237
4.59117
3.8823
3.17485
2.46823
1.76212
1.05642
0.351317
38.8463
38.5321
38.1013
37.5707
36.9533
36.2546
35.4718
34.5951
33.6089
32.496
31.2431
29.8472
28.3209
26.6919
24.9975
23.2782
21.5749
19.9254
18.3624
16.9107
15.583
14.3791
13.2887
12.2952
11.3801
10.5258
9.71706
8.94142
8.18928
7.45342
6.72863
6.01117
5.29846
4.58875
3.88085
3.17402
2.46776
1.76185
1.05624
0.351211
39.0489
38.6971
38.2388
37.6918
37.0686
36.3732
35.6012
34.7392
33.7673
32.6629
31.4068
29.9927
28.4335
26.761
25.0181
23.2501
21.5018
19.8143
18.2239
16.758
15.4297
14.2366
13.1641
12.1918
11.2979
10.4628
9.6702
8.90754
8.16538
7.43697
6.71755
6.00389
5.2938
4.58585
3.87911
3.173
2.4672
1.76155
1.05608
0.351163
39.2388
38.8552
38.3733
37.8126
37.1858
36.4958
35.7364
34.8912
33.9358
32.8414
31.5827
30.1492
28.5543
26.8348
25.0394
23.2187
21.4219
19.6937
18.0739
16.5933
15.2653
14.0845
13.032
12.0827
11.2115
10.3968
9.62134
8.8723
8.14058
7.41991
6.70608
5.99635
5.28897
4.58283
3.87729
3.17195
2.46663
1.76126
1.05596
0.351161
39.3987
38.9904
38.4901
37.9192
37.2906
36.6069
35.8601
35.0314
34.0921
33.0079
31.7475
30.2964
28.668
26.904
25.0592
23.1888
21.3463
19.5797
17.9326
16.4388
15.1118
13.9433
12.9098
11.9823
11.1324
10.3366
9.57687
8.84031
8.11811
7.40447
6.69571
5.98954
5.2846
4.58011
3.87565
3.17101
2.46611
1.76101
1.05588
0.351188
39.5141
39.089
38.5762
37.9987
37.3696
36.6912
35.9547
35.1392
34.2129
33.1372
31.876
30.4114
28.7572
26.9586
25.0748
23.1652
21.2868
19.4904
17.8223
16.3185
14.9927
13.8341
12.8158
11.9052
11.0719
10.2907
9.54302
8.81601
8.10106
7.39278
6.68786
5.98438
5.28129
4.57805
3.87441
3.17029
2.46573
1.76083
1.05583
0.351222
39.5745
39.141
38.6219
38.0411
37.412
36.7368
36.006
35.1979
34.2789
33.2079
31.9465
30.4747
28.8064
26.9888
25.0836
23.1523
21.2541
19.4413
17.7618
16.2527
14.9277
13.7746
12.7646
11.8634
11.0391
10.2658
9.52472
8.80289
8.09187
7.38647
6.68363
5.98161
5.27952
4.57694
3.87374
3.16991
2.46552
1.76074
1.05581
0.351245
39.5746
39.1411
38.622
38.0412
37.4121
36.7369
36.0061
35.198
34.279
33.208
31.9466
30.4748
28.8065
26.9889
25.0837
23.1524
21.2541
19.4414
17.7618
16.2528
14.9278
13.7746
12.7647
11.8634
11.0391
10.2658
9.52472
8.80288
8.09186
7.38647
6.68362
5.9816
5.27951
4.57694
3.87374
3.16991
2.46552
1.76074
1.05581
0.351247
39.5144
39.0893
38.5765
37.999
37.3699
36.6915
35.955
35.1395
34.2133
33.1376
31.8764
30.4118
28.7575
26.9589
25.075
23.1655
21.287
19.4906
17.8225
16.3187
14.9929
13.8342
12.8158
11.9053
11.0719
10.2906
9.54299
8.81597
8.10103
7.39275
6.68783
5.98436
5.28128
4.57804
3.8744
3.17029
2.46573
1.76083
1.05584
0.351228
39.3992
38.9909
38.4906
37.9198
37.2911
36.6074
35.8606
35.032
34.0928
33.0086
31.7482
30.297
28.6686
26.9045
25.0596
23.1891
21.3466
19.58
17.9329
16.439
15.1119
13.9433
12.9099
11.9823
11.1324
10.3365
9.57681
8.84025
8.11806
7.40443
6.69567
5.9895
5.28457
4.58009
3.87563
3.171
2.46611
1.76101
1.05589
0.351198
39.2395
38.8559
38.3739
37.8133
37.1865
36.4966
35.7372
34.8921
33.9368
32.8424
31.5837
30.1502
28.5552
26.8355
25.04
23.2192
21.4223
19.6939
18.074
16.5934
15.2653
14.0845
13.0319
12.0826
11.2114
10.3967
9.62124
8.87221
8.1405
7.41984
6.70602
5.9963
5.28893
4.58281
3.87727
3.17194
2.46662
1.76126
1.05597
0.351174
39.0497
38.6979
38.2396
37.6927
37.0695
36.3742
35.6022
34.7403
33.7686
32.6642
31.4082
29.994
28.4346
26.762
25.0189
23.2506
21.5021
19.8145
18.2239
16.7579
15.4296
14.2364
13.164
12.1916
11.2977
10.4626
9.67004
8.9074
8.16527
7.43687
6.71748
6.00383
5.29375
4.58581
3.87908
3.17299
2.46719
1.76155
1.05609
0.351177
38.8472
38.533
38.1023
37.5717
36.9544
36.2557
35.4731
34.5965
33.6104
32.4976
31.2447
29.8487
28.3223
26.6931
24.9983
23.2788
21.5752
19.9255
18.3623
16.9105
15.5827
14.3788
13.2884
12.2949
11.3798
10.5256
9.71686
8.94125
8.18913
7.45331
6.72854
6.0111
5.29841
4.58871
3.88082
3.174
2.46775
1.76185
1.05625
0.351226
38.6514
38.3783
37.9768
37.4639
36.8541
36.1545
35.3643
34.4766
33.4795
32.3604
31.1104
29.7294
28.2296
26.6355
24.9802
23.3004
21.6337
20.015
18.4745
17.0346
15.7079
14.4959
13.3913
12.3808
11.4484
10.5784
9.75621
8.96976
8.20926
7.46717
6.73786
6.01721
5.30231
4.59112
3.88227
3.17483
2.46822
1.76212
1.05642
0.351332
38.4827
38.2502
37.8764
37.3805
36.7788
36.0802
35.2859
34.391
33.3866
32.2634
31.0155
29.6448
28.1635
26.5938
24.966
23.3142
21.6734
20.0767
18.5521
17.121
15.7954
14.5782
13.4639
12.4416
11.4972
10.616
9.78423
8.99004
8.22355
7.47698
6.74442
6.02148
5.30501
4.59277
3.88323
3.17536
2.46852
1.76231
1.0566
0.351489
38.3616
38.1639
37.8124
37.3301
36.7355
36.0391
35.2434
34.3451
33.3369
32.2114
30.9645
29.5992
28.1275
26.5708
24.9577
23.3208
21.694
20.1091
18.5931
17.1666
15.8417
14.6217
13.5023
12.4737
11.5228
10.6356
9.79873
9.00041
8.23074
7.48182
6.74757
6.02347
5.3062
4.59344
3.88358
3.17553
2.4686
1.76238
1.05671
0.351663
38.3076
38.1342
37.7961
37.3212
36.7306
36.0361
35.241
34.3424
33.3336
32.2074
30.9603
29.5952
28.1245
26.5691
24.9575
23.3221
21.6966
20.1126
18.5972
17.1708
15.8455
14.6248
13.5045
12.4749
11.5232
10.6354
9.79814
8.99962
8.22988
7.48098
6.74681
6.02281
5.30565
4.593
3.88323
3.17526
2.46839
1.76224
1.05666
0.351745
38.3605
38.1628
37.8113
37.3289
36.7343
36.0377
35.2419
34.3434
33.3351
32.2095
30.9626
29.5973
28.1258
26.5694
24.9567
23.3202
21.6937
20.1091
18.5934
17.167
15.8422
14.6223
13.5029
12.4742
11.5232
10.6359
9.79903
9.00066
8.23094
7.48198
6.74769
6.02356
5.30627
4.59349
3.88361
3.17555
2.46861
1.76238
1.05671
0.351655
38.3996
38.1646
37.7931
37.3004
36.6998
35.999
35.1995
34.2979
33.2874
32.1615
30.9167
29.5564
28.0928
26.5466
24.9456
23.3215
21.707
20.1329
18.6256
17.2049
15.8828
14.6627
13.5411
12.5085
11.5529
10.6607
9.81917
9.01659
8.24325
7.49131
6.75464
6.02864
5.30993
4.5961
3.88545
3.17684
2.46952
1.76303
1.05715
0.351783
38.514
38.235
37.8355
37.3257
36.7152
36.0093
35.208
34.3066
33.2973
32.1724
30.9278
29.5663
28.0999
26.5499
24.9448
23.3168
21.699
20.1224
18.6137
17.1928
15.8718
14.6538
13.5346
12.5045
11.551
10.6605
9.82
9.01806
8.24502
7.49312
6.75634
6.03015
5.31122
4.59716
3.8863
3.17751
2.47003
1.76339
1.05734
0.351746
38.6841
38.3547
37.9223
37.3919
36.7701
36.0598
35.259
34.361
33.3558
32.2333
30.9871
29.6186
28.1398
26.5738
24.9508
23.3048
21.6707
20.0806
18.5623
17.1368
15.816
14.6022
13.4899
12.4679
11.5224
10.6391
9.80461
9.00742
8.23796
7.48863
6.75364
6.02864
5.31048
4.59688
3.88629
3.17763
2.47019
1.76353
1.05741
0.351706
38.886
38.5052
38.0385
37.4868
36.854
36.1409
35.3434
34.452
33.4539
32.3352
31.086
29.7056
28.2062
26.6134
24.9609
23.2854
21.6241
20.0114
18.477
17.0433
15.7225
14.5154
13.414
12.4049
11.4724
10.6009
9.77644
8.98728
8.22398
7.47922
6.7475
6.02478
5.30815
4.59556
3.8856
3.17732
2.47008
1.76351
1.05742
0.351709
39.0966
38.6679
38.1688
37.5972
36.955
36.2412
35.4495
34.5677
33.5793
32.4658
31.2131
29.8173
28.2913
26.664
24.9734
23.26
21.564
19.9222
18.367
16.9229
15.6022
14.4039
13.3167
12.3242
11.4082
10.5517
9.73994
8.96097
8.20553
7.46662
6.73912
6.01937
5.30477
4.59353
3.88445
3.17671
2.4698
1.76341
1.0574
0.35176
39.2945
38.8248
38.2975
37.709
37.0597
36.3471
35.563
34.6927
33.7155
32.6086
31.3524
29.9401
28.3845
26.7192
24.9868
23.2317
21.4976
19.824
18.2459
16.7907
15.4708
14.2825
13.2112
12.2369
11.3389
10.4986
9.7005
8.93249
8.18549
7.45286
6.72992
6.01337
5.30097
4.59122
3.8831
3.17597
2.46943
1.76326
1.05739
0.351846
39.4612
38.9591
38.4098
37.8082
37.1541
36.4439
35.6679
34.8089
33.8431
32.7429
31.4842
30.0565
28.4731
26.7716
24.9995
23.2049
21.4346
19.7308
18.1312
16.6659
15.3472
14.1688
13.1127
12.1557
11.2746
10.4494
9.66401
8.90614
8.16693
7.4401
6.72135
6.00776
5.29741
4.58902
3.8818
3.17525
2.46906
1.76311
1.05738
0.351944
39.5815
39.0572
38.4927
37.8823
37.2254
36.5177
35.7484
34.8987
33.942
32.8476
31.5873
30.148
28.543
26.8133
25.0099
23.1838
21.385
19.6576
18.0415
16.5687
15.2511
14.0808
13.0367
12.0931
11.2252
10.4117
9.63602
8.88593
8.1527
7.43031
6.71477
6.00345
5.29465
4.58732
3.88079
3.17468
2.46877
1.763
1.05738
0.352027
39.6445
39.1088
38.5366
37.9219
37.2638
36.5576
35.7921
34.9475
33.9961
32.9049
31.6439
30.1983
28.5817
26.8365
25.0158
23.1723
21.3576
19.6173
17.9923
16.5155
15.1987
14.0328
12.9953
12.0591
11.1983
10.3912
9.62084
8.87499
8.14498
7.42501
6.7112
6.00111
5.29316
4.58639
3.88024
3.17437
2.46862
1.76293
1.05737
0.352075
39.6446
39.1089
38.5367
37.922
37.2639
36.5577
35.7922
34.9477
33.9962
32.905
31.644
30.1984
28.5818
26.8366
25.0158
23.1724
21.3577
19.6174
17.9924
16.5155
15.1988
14.0328
12.9953
12.0591
11.1983
10.3912
9.62084
8.87498
8.14497
7.425
6.7112
6.0011
5.29315
4.58639
3.88023
3.17436
2.46861
1.76293
1.05737
0.352075
39.5818
39.0575
38.493
37.8826
37.2257
36.518
35.7487
34.899
33.9424
32.8479
31.5876
30.1483
28.5433
26.8136
25.0101
23.1841
21.3852
19.6578
18.0417
16.5688
15.2513
14.0809
13.0367
12.0931
11.2251
10.4116
9.63598
8.8859
8.15266
7.43028
6.71475
6.00343
5.29464
4.58731
3.88078
3.17467
2.46877
1.76299
1.05737
0.352028
39.4617
38.9596
38.4103
37.8087
37.1546
36.4445
35.6685
34.8095
33.8437
32.7435
31.4849
30.0571
28.4737
26.7721
25
23.2052
21.4349
19.731
18.1314
16.6661
15.3473
14.1689
13.1127
12.1556
11.2745
10.4494
9.66394
8.90608
8.16687
7.44005
6.72131
6.00773
5.29738
4.589
3.88178
3.17523
2.46905
1.7631
1.05737
0.351945
39.2952
38.8254
38.2982
37.7097
37.0604
36.3479
35.5639
34.6935
33.7164
32.6095
31.3534
29.941
28.3854
26.7199
24.9874
23.2322
21.498
19.8242
18.246
16.7908
15.4708
14.2824
13.2111
12.2368
11.3388
10.4985
9.70039
8.93239
8.1854
7.45279
6.72986
6.01332
5.30093
4.59119
3.88307
3.17595
2.46941
1.76325
1.05738
0.351849
39.0974
38.6688
38.1696
37.5981
36.9559
36.2422
35.4505
34.5689
33.5805
32.4671
31.2143
29.8185
28.2924
26.6649
24.9741
23.2605
21.5643
19.9224
18.367
16.9228
15.6021
14.4037
13.3165
12.324
11.408
10.5515
9.73978
8.96084
8.20541
7.46652
6.73905
6.01931
5.30472
4.5935
3.88442
3.17669
2.46978
1.76339
1.05739
0.351764
38.887
38.5062
38.0394
37.4878
36.8551
36.142
35.3446
34.4534
33.4553
32.3367
31.0876
29.707
28.2075
26.6145
24.9617
23.286
21.6245
20.0115
18.4769
17.0431
15.7222
14.5151
13.4137
12.4046
11.4721
10.6007
9.77624
8.98711
8.22384
7.4791
6.74741
6.0247
5.30809
4.59551
3.88557
3.17729
2.47006
1.7635
1.0574
0.351713
38.6852
38.3558
37.9233
37.393
36.7712
36.061
35.2604
34.3625
33.3574
32.235
30.9888
29.6202
28.1413
26.575
24.9517
23.3054
21.671
20.0806
18.5621
17.1365
15.8156
14.6018
13.4895
12.4675
11.5221
10.6388
9.80436
9.00722
8.23779
7.4885
6.75354
6.02856
5.31041
4.59684
3.88626
3.1776
2.47017
1.76351
1.05739
0.351711
38.5151
38.2361
37.8366
37.3269
36.7164
36.0106
35.2095
34.3081
33.299
32.1742
30.9296
29.568
28.1014
26.5512
24.9458
23.3174
21.6993
20.1224
18.6135
17.1925
15.8714
14.6533
13.5341
12.5041
11.5506
10.6601
9.81972
9.01783
8.24484
7.49298
6.75623
6.03006
5.31115
4.59711
3.88627
3.17748
2.47001
1.76338
1.05733
0.351751
38.4007
38.1657
37.7942
37.3016
36.701
36.0003
35.201
34.2995
33.2892
32.1633
30.9185
29.5582
28.0944
26.5479
24.9466
23.3221
21.7073
20.1329
18.6253
17.2045
15.8822
14.6622
13.5405
12.5081
11.5525
10.6604
9.81887
9.01635
8.24306
7.49116
6.75452
6.02855
5.30987
4.59605
3.88542
3.17682
2.46951
1.76302
1.05715
0.351788
38.3616
38.1639
37.8124
37.3301
36.7355
36.039
35.2434
34.345
33.3368
32.2113
30.9645
29.5991
28.1275
26.5708
24.9577
23.3208
21.694
20.1091
18.5931
17.1666
15.8417
14.6217
13.5024
12.4737
11.5228
10.6356
9.79873
9.00042
8.23075
7.48183
6.74758
6.02347
5.3062
4.59344
3.88358
3.17553
2.4686
1.76238
1.0567
0.351658
38.4816
38.2491
37.8753
37.3793
36.7776
36.0788
35.2844
34.3893
33.3848
32.2614
31.0135
29.643
28.1618
26.5924
24.965
23.3135
21.6731
20.0767
18.5524
17.1214
15.7959
14.5787
13.4645
12.4421
11.4976
10.6163
9.78454
8.99029
8.22374
7.47713
6.74454
6.02157
5.30507
4.59282
3.88326
3.17539
2.46854
1.76232
1.05659
0.351477
38.514
38.235
37.8355
37.3257
36.7152
36.0093
35.208
34.3065
33.2972
32.1724
30.9278
29.5662
28.0998
26.5499
24.9448
23.3168
21.699
20.1224
18.6137
17.1929
15.8719
14.6539
13.5346
12.5046
11.551
10.6605
9.82001
9.01807
8.24503
7.49313
6.75635
6.03015
5.31122
4.59716
3.8863
3.17751
2.47003
1.76339
1.05734
0.351746
38.6212
38.2939
37.8619
37.3315
36.7083
35.9947
35.189
34.2854
33.2756
32.1515
30.9084
29.5486
28.0844
26.5374
24.9362
23.3128
21.6999
20.1281
18.6236
17.2064
15.8883
14.6723
13.5539
12.5236
11.5689
10.6765
9.83393
9.02977
8.25461
7.50079
6.76235
6.03478
5.31473
4.59979
3.88826
3.17895
2.47108
1.76413
1.05779
0.351795
38.7896
38.4073
37.938
37.3837
36.7465
36.0262
35.2189
34.3171
33.3106
32.1889
30.9451
29.5802
28.1066
26.5478
24.9344
23.2996
21.6766
20.0967
18.587
17.1683
15.8524
14.6413
13.5292
12.5053
11.5562
10.6685
9.82939
9.02768
8.25411
7.50125
6.76331
6.03594
5.3159
4.60088
3.8892
3.17974
2.47171
1.7646
1.05806
0.351838
38.9954
38.5557
38.0476
37.4688
36.8181
36.093
35.2873
34.3912
33.3915
32.274
31.028
29.652
28.1588
26.5755
24.9363
23.2768
21.6315
20.0331
18.5103
17.0863
15.7728
14.5698
13.4689
12.4571
11.5194
10.6415
9.81036
9.01476
8.2457
7.49603
6.76028
6.03434
5.31521
4.60072
3.88933
3.18
2.47201
1.76487
1.05826
0.351932
39.2134
38.7192
38.1744
37.5726
36.9102
36.1826
35.3816
34.4947
33.505
32.3938
31.1451
29.7535
28.2325
26.6151
24.9402
23.2463
21.5699
19.9451
18.4035
16.9717
15.6613
14.4694
13.3838
12.3884
11.4663
10.6018
9.78163
8.99461
8.23199
7.487
6.75454
6.03086
5.31321
4.59967
3.88887
3.17988
2.47207
1.765
1.05841
0.352083
39.4203
38.8785
38.3014
37.6799
37.0085
36.2807
35.4867
34.6112
33.6339
32.5309
31.2801
29.871
28.3175
26.6607
24.945
23.2119
21.4999
19.8447
18.281
16.8404
15.5342
14.3555
13.2876
12.3108
11.4061
10.5567
9.74876
8.97133
8.21595
7.47625
6.74755
6.02646
5.31056
4.59817
3.88809
3.17954
2.47198
1.76505
1.05854
0.352268
39.5955
39.0158
38.4131
37.7763
37.0985
36.3721
35.5857
34.7221
33.7577
32.6637
31.4119
29.9864
28.4011
26.706
24.9505
23.1789
21.4319
19.7472
18.1619
16.7133
15.412
14.2467
13.1961
12.2372
11.3491
10.5139
9.71753
8.94914
8.20057
7.46586
6.74072
6.02211
5.30789
4.59661
3.88724
3.17913
2.47183
1.76506
1.05864
0.352453
39.7224
39.1163
38.4958
37.8487
37.167
36.4424
35.6626
34.8088
33.855
32.7686
31.5166
30.0788
28.4691
26.7438
24.956
23.1526
21.3772
19.6691
18.0674
16.6131
15.316
14.1615
13.1247
12.18
11.3048
10.4807
9.69327
8.93188
8.18859
7.45775
6.73537
6.01867
5.30576
4.59534
3.88654
3.17878
2.47169
1.76505
1.05872
0.352603
39.7889
39.1693
38.5399
37.8875
37.204
36.4806
35.7045
34.8563
33.9084
32.8264
31.5744
30.1302
28.5075
26.7657
24.9595
23.138
21.3465
19.6256
18.0152
16.5581
15.2635
14.115
13.0857
12.1488
11.2806
10.4625
9.68005
8.92247
8.18204
7.45331
6.73243
6.01678
5.30459
4.59464
3.88614
3.17858
2.47161
1.76504
1.05876
0.352686
39.789
39.1695
38.54
37.8876
37.2041
36.4807
35.7046
34.8563
33.9085
32.8264
31.5745
30.1302
28.5076
26.7657
24.9596
23.1381
21.3466
19.6257
18.0153
16.5582
15.2636
14.115
13.0858
12.1488
11.2806
10.4625
9.68004
8.92245
8.18203
7.4533
6.73242
6.01678
5.30458
4.59464
3.88614
3.17857
2.47161
1.76504
1.05875
0.352686
39.7227
39.1166
38.4961
37.849
37.1673
36.4427
35.6629
34.8091
33.8553
32.7689
31.5169
30.0791
28.4694
26.744
24.9562
23.1528
21.3774
19.6694
18.0676
16.6133
15.3162
14.1616
13.1247
12.18
11.3048
10.4806
9.69324
8.93184
8.18855
7.45772
6.73534
6.01865
5.30575
4.59533
3.88653
3.17877
2.47169
1.76505
1.05871
0.352603
39.5961
39.0163
38.4136
37.7768
37.099
36.3726
35.5862
34.7227
33.7583
32.6643
31.4125
29.987
28.4016
26.7065
24.9509
23.1792
21.4322
19.7475
18.1622
16.7136
15.4122
14.2467
13.1961
12.2372
11.349
10.5138
9.71747
8.94908
8.20051
7.46581
6.74068
6.02208
5.30787
4.59658
3.88723
3.17912
2.47183
1.76506
1.05864
0.352453
39.421
38.8792
38.3021
37.6806
37.0092
36.2815
35.4875
34.612
33.6348
32.5319
31.2811
29.8719
28.3183
26.6614
24.9456
23.2123
21.5002
19.845
18.2812
16.8405
15.5343
14.3555
13.2876
12.3107
11.406
10.5566
9.74865
8.97123
8.21586
7.47617
6.74749
6.02641
5.31052
4.59814
3.88807
3.17953
2.47197
1.76505
1.05853
0.352267
39.2143
38.72
38.1752
37.5734
36.9111
36.1836
35.3827
34.4958
33.5062
32.395
31.1464
29.7548
28.2336
26.616
24.9409
23.2468
21.5702
19.9452
18.4035
16.9716
15.6611
14.4692
13.3836
12.3882
11.4661
10.6016
9.78147
8.99448
8.23188
7.48691
6.75447
6.03079
5.31316
4.59963
3.88885
3.17986
2.47206
1.765
1.0584
0.352082
38.9964
38.5566
38.0486
37.4698
36.8192
36.0941
35.2885
34.3926
33.3929
32.2755
31.0296
29.6535
28.1601
26.5766
24.9372
23.2773
21.6318
20.0331
18.5102
17.0861
15.7725
14.5694
13.4686
12.4567
11.5191
10.6413
9.81015
9.01459
8.24555
7.49591
6.76019
6.03427
5.31515
4.60067
3.8893
3.17998
2.47199
1.76486
1.05825
0.351931
38.7907
38.4083
37.939
37.3848
36.7476
36.0274
35.2203
34.3186
33.3122
32.1906
30.9468
29.5819
28.1081
26.5491
24.9353
23.3002
21.6769
20.0967
18.5868
17.168
15.852
14.6409
13.5288
12.5049
11.5559
10.6682
9.82915
9.02747
8.25394
7.50111
6.76321
6.03586
5.31584
4.60083
3.88917
3.17971
2.47169
1.76459
1.05805
0.351837
38.6223
38.295
37.863
37.3326
36.7095
35.9961
35.1905
34.287
33.2774
32.1533
30.9102
29.5504
28.0859
26.5387
24.9372
23.3134
21.7002
20.1281
18.6233
17.206
15.8878
14.6718
13.5534
12.5231
11.5685
10.6762
9.83364
9.02954
8.25442
7.50064
6.76224
6.03469
5.31466
4.59974
3.88822
3.17892
2.47106
1.76412
1.05778
0.351795
38.5151
38.2361
37.8366
37.3269
36.7164
36.0107
35.2095
34.3082
33.299
32.1743
30.9297
29.5681
28.1015
26.5513
24.9458
23.3174
21.6992
20.1224
18.6134
17.1924
15.8713
14.6533
13.5341
12.5041
11.5506
10.6601
9.81971
9.01783
8.24484
7.49298
6.75623
6.03007
5.31115
4.59711
3.88627
3.17749
2.47002
1.76339
1.05734
0.351748
38.4827
38.2502
37.8763
37.3804
36.7788
36.0802
35.2859
34.391
33.3866
32.2634
31.0155
29.6449
28.1635
26.5939
24.966
23.3142
21.6734
20.0766
18.552
17.1209
15.7953
14.5781
13.4639
12.4416
11.4971
10.6159
9.78423
8.99005
8.22356
7.47699
6.74443
6.02149
5.30501
4.59277
3.88323
3.17537
2.46852
1.76231
1.05659
0.351478
38.6504
38.3773
37.9757
37.4628
36.8529
36.1531
35.3629
34.4749
33.4777
32.3585
31.1084
29.7275
28.2279
26.6341
24.9791
23.2997
21.6334
20.015
18.4747
17.035
15.7084
14.4965
13.3919
12.3813
11.4489
10.5787
9.75651
8.97
8.20945
7.46732
6.73797
6.0173
5.30238
4.59117
3.8823
3.17485
2.46823
1.76212
1.05642
0.351318
38.6841
38.3547
37.9223
37.3919
36.7701
36.0598
35.259
34.3609
33.3557
32.2332
30.987
29.6184
28.1397
26.5737
24.9507
23.3048
21.6706
20.0806
18.5623
17.1368
15.8161
14.6023
13.49
12.468
11.5225
10.6391
9.80464
9.00745
8.23797
7.48865
6.75365
6.02865
5.31048
4.59689
3.88629
3.17763
2.47019
1.76353
1.05741
0.351706
38.7896
38.4073
37.938
37.3837
36.7465
36.0261
35.2189
34.3171
33.3105
32.1888
30.945
29.5802
28.1066
26.5478
24.9344
23.2995
21.6766
20.0967
18.587
17.1683
15.8525
14.6414
13.5293
12.5053
11.5563
10.6686
9.82941
9.02769
8.25412
7.50125
6.76332
6.03594
5.31591
4.60088
3.8892
3.17974
2.47171