# vtk DataFile Version 2.0
I need something to put here
ASCII

DATASET STRUCTURED_GRID
DIMENSIONS 41 21 21
POINTS 18081 float
0.000000 0.000000 0.000000
0.100000 0.000000 0.000000
0.200000 0.000000 0.000000
0.300000 0.000000 0.000000
0.400000 0.000000 0.000000
0.500000 0.000000 0.000000
0.600000 0.000000 0.000000
0.700000 0.000000 0.000000
0.800000 0.000000 0.000000
0.900000 0.000000 0.000000
1.000000 0.000000 0.000000
1.100000 0.000000 0.000000
1.200000 0.000000 0.000000
1.300000 0.000000 0.000000
1.400000 0.000000 0.000000
1.500000 0.000000 0.000000
1.600000 0.000000 0.000000
1.700000 0.000000 0.000000
1.800000 0.000000 0.000000
1.900000 0.000000 0.000000
2.000000 0.000000 0.000000
2.100000 0.000000 0.000000
2.200000 0.000000 0.000000
2.300000 0.000000 0.000000
2.400000 0.000000 0.000000
2.500000 0.000000 0.000000
2.600000 0.000000 0.000000
2.700000 0.000000 0.000000
2.800000 0.000000 0.000000
2.900000 0.000000 0.000000
3.000000 0.000000 0.000000
3.100000 0.000000 0.000000
3.200000 0.000000 0.000000
3.300000 0.000000 0.000000
3.400000 0.000000 0.000000
3.500000 0.000000 0.000000
3.600000 0.000000 0.000000
3.700000 0.000000 0.000000
3.800000 0.000000 0.000000
3.900000 0.000000 0.000000
4.000000 0.000000 0.000000
0.000000 0.100000 0.000000
0.100000 0.100000 0.000000
0.200000 0.100000 0.000000
0.300000 0.100000 0.000000
0.400000 0.100000 0.000000
0.500000 0.100000 0.000000
0.600000 0.100000 0.000000
0.700000 0.100000 0.000000
0.800000 0.100000 0.000000
0.900000 0.100000 0.000000
1.000000 0.100000 0.000000
1.100000 0.100000 0.000000
1.200000 0.100000 0.000000
1.300000 0.100000 0.000000
1.400000 0.100000 0.000000
1.500000 0.100000 0.000000
1.600000 0.100000 0.000000
1.700000 0.100000 0.000000
1.800000 0.100000 0.000000
1.900000 0.100000 0.000000
2.000000 0.100000 0.000000
2.100000 0.100000 0.000000
2.200000 0.100000 0.000000
2.300000 0.100000 0.000000
2.400000 0.100000 0.000000
2.500000 0.100000 0.000000
2.600000 0.100000 0.000000
2.700000 0.100000 0.000000
2.800000 0.100000 0.000000
2.900000 0.100000 0.000000
3.000000 0.100000 0.000000
3.100000 0.100000 0.000000
3.200000 0.100000 0.000000
3.300000 0.100000 0.000000
3.400000 0.100000 0.000000
3.500000 0.100000 0.000000
3.600000 0.100000 0.000000
3.700000 0.100000 0.000000
3.800000 0.100000 0.000000
3.900000 0.100000 0.000000
4.000000 0.100000 0.000000
0.000000 0.200000 0.000000
0.100000 0.200000 0.000000
0.200000 0.200000 0.000000
0.300000 0.200000 0.000000
0.400000 0.200000 0.000000
0.500000 0.200000 0.000000
0.600000 0.200000 0.000000
0.700000 0.200000 0.000000
0.800000 0.200000 0.000000
0.900000 0.200000 0.000000
1.000000 0.200000 0.000000
1.100000 0.200000 0.000000
1.200000 0.200000 0.000000
1.300000 0.200000 0.000000
1.400000 0.200000 0.000000
1.500000 0.200000 0.000000
1.600000 0.200000 0.000000
1.700000 0.200000 0.000000
1.800000 0.200000 0.000000
1.900000 0.200000 0.000000
2.000000 0.200000 0.000000
2.100000 0.200000 0.000000
2.200000 0.200000 0.000000
2.300000 0.200000 0.000000
2.400000 0.200000 0.000000
2.500000 0.200000 0.000000
2.600000 0.200000 0.000000
2.700000 0.200000 0.000000
2.800000 0.200000 0.000000
2.900000 0.200000 0.000000
3.000000 0.200000 0.000000
3.100000 0.200000 0.000000
3.200000 0.200000 0.000000
3.300000 0.200000 0.000000
3.400000 0.200000 0.000000
3.500000 0.200000 0.000000
3.600000 0.200000 0.000000
3.700000 0.200000 0.000000
3.800000 0.200000 0.000000
3.900000 0.200000 0.000000
4.000000 0.200000 0.000000
0.000000 0.300000 0.000000
0.100000 0.300000 0.000000
0.200000 0.300000 0.000000
0.300000 0.300000 0.000000
0.400000 0.300000 0.000000
0.500000 0.300000 0.000000
0.600000 0.300000 0.000000
0.700000 0.300000 0.000000
0.800000 0.300000 0.000000
0.900000 0.300000 0.000000
1.000000 0.300000 0.000000
1.100000 0.300000 0.000000
1.200000 0.300000 0.000000
1.300000 0.300000 0.000000
1.400000 0.300000 0.000000
1.500000 0.300000 0.000000
1.600000 0.300000 0.000000
1.700000 0.300000 0.000000
1.800000 0.300000 0.000000
1.900000 0.300000 0.000000
2.000000 0.300000 0.000000
2.100000 0.300000 0.000000
2.200000 0.300000 0.000000
2.300000 0.300000 0.000000
2.400000 0.300000 0.000000
2.500000 0.300000 0.000000
2.600000 0.300000 0.000000
2.700000 0.300000 0.000000
2.800000 0.300000 0.000000
2.900000 0.300000 0.000000
3.000000 0.300000 0.000000
3.100000 0.300000 0.000000
3.200000 0.300000 0.000000
3.300000 0.300000 0.000000
3.400000 0.300000 0.000000
3.500000 0.300000 0.000000
3.600000 0.300000 0.000000
3.700000 0.300000 0.000000
3.800000 0.300000 0.000000
3.900000 0.300000 0.000000
4.000000 0.300000 0.000000
0.000000 0.400000 0.000000
0.100000 0.400000 0.000000
0.200000 0.400000 0.000000
0.300000 0.400000 0.000000
0.400000 0.400000 0.000000
0.500000 0.400000 0.000000
0.600000 0.400000 0.000000
0.700000 0.400000 0.000000
0.800000 0.400000 0.000000
0.900000 0.400000 0.000000
1.000000 0.400000 0.000000
1.100000 0.400000 0.000000
1.200000 0.400000 0.000000
1.300000 0.400000 0.000000
1.400000 0.400000 0.000000
1.500000 0.400000 0.000000
1.600000 0.400000 0.000000
1.700000 0.400000 0.000000
1.800000 0.400000 0.000000
1.900000 0.400000 0.000000
2.000000 0.400000 0.000000
2.100000 0.400000 0.000000
2.200000 0.400000 0.000000
2.300000 0.400000 0.000000
2.400000 0.400000 0.000000
2.500000 0.400000 0.000000
2.600000 0.400000 0.000000
2.700000 0.400000 0.000000
2.800000 0.400000 0.000000
2.900000 0.400000 0.000000
3.000000 0.400000 0.000000
3.100000 0.400000 0.000000
3.200000 0.400000 0.000000
3.300000 0.400000 0.000000
3.400000 0.400000 0.000000
3.500000 0.400000 0.000000
3.600000 0.400000 0.000000
3.700000 0.400000 0.000000
3.800000 0.400000 0.000000
3.900000 0.400000 0.000000
4.000000 0.400000 0.000000
0.000000 0.500000 0.000000
0.100000 0.500000 0.000000
0.200000 0.500000 0.000000
0.300000 0.500000 0.000000
0.400000 0.500000 0.000000
0.500000 0.500000 0.000000
0.600000 0.500000 0.000000
0.700000 0.500000 0.000000
0.800000 0.500000 0.000000
0.900000 0.500000 0.000000
1.000000 0.500000 0.000000
1.100000 0.500000 0.000000
1.200000 0.500000 0.000000
1.300000 0.500000 0.000000
1.400000 0.500000 0.000000
1.500000 0.500000 0.000000
1.600000 0.500000 0.000000
1.700000 0.500000 0.000000
1.800000 0.500000 0.000000
1.900000 0.500000 0.000000
2.000000 0.500000 0.000000
2.100000 0.500000 0.000000
2.200000 0.500000 0.000000
2.300000 0.500000 0.000000
2.400000 0.500000 0.000000
2.500000 0.500000 0.000000
2.600000 0.500000 0.000000
2.700000 0.500000 0.000000
2.800000 0.500000 0.000000
2.900000 0.500000 0.000000
3.000000 0.500000 0.000000
3.100000 0.500000 0.000000
3.200000 0.500000 0.000000
3.300000 0.500000 0.000000
3.400000 0.500000 0.000000
3.500000 0.500000 0.000000
3.600000 0.500000 0.000000
3.700000 0.500000 0.000000
3.800000 0.500000 0.000000
3.900000 0.500000 0.000000
4.000000 0.500000 0.000000
0.000000 0.600000 0.000000
0.100000 0.600000 0.000000
0.200000 0.600000 0.000000
0.300000 0.600000 0.000000
0.400000 0.600000 0.000000
0.500000 0.600000 0.000000
0.600000 0.600000 0.000000
0.700000 0.600000 0.000000
0.800000 0.600000 0.000000
0.900000 0.600000 0.000000
1.000000 0.600000 0.000000
1.100000 0.600000 0.000000
1.200000 0.600000 0.000000
1.300000 0.600000 0.000000
1.400000 0.600000 0.000000
1.500000 0.600000 0.000000
1.600000 0.600000 0.000000
1.700000 0.600000 0.000000
1.800000 0.600000 0.000000
1.900000 0.600000 0.000000
2.000000 0.600000 0.000000
2.100000 0.600000 0.000000
2.200000 0.600000 0.000000
2.300000 0.600000 0.000000
2.400000 0.600000 0.000000
2.500000 0.600000 0.000000
2.600000 0.600000 0.000000
2.700000 0.600000 0.000000
2.800000 0.600000 0.000000
2.900000 0.600000 0.000000
3.000000 0.600000 0.000000
3.100000 0.600000 0.000000
3.200000 0.600000 0.000000
3.300000 0.600000 0.000000
3.400000 0.600000 0.000000
3.500000 0.600000 0.000000
3.600000 0.600000 0.000000
3.700000 0.600000 0.000000
3.800000 0.600000 0.000000
3.900000 0.600000 0.000000
4.000000 0.600000 0.000000
0.000000 0.700000 0.000000
0.100000 0.700000 0.000000
0.200000 0.700000 0.000000
0.300000 0.700000 0.000000
0.400000 0.700000 0.000000
0.500000 0.700000 0.000000
0.600000 0.700000 0.000000
0.700000 0.700000 0.000000
0.800000 0.700000 0.000000
0.900000 0.700000 0.000000
1.000000 0.700000 0.000000
1.100000 0.700000 0.000000
1.200000 0.700000 0.000000
1.300000 0.700000 0.000000
1.400000 0.700000 0.000000
1.500000 0.700000 0.000000
1.600000 0.700000 0.000000
1.700000 0.700000 0.000000
1.800000 0.700000 0.000000
1.900000 0.700000 0.000000
2.000000 0.700000 0.000000
2.100000 0.700000 0.000000
2.200000 0.700000 0.000000
2.300000 0.700000 0.000000
2.400000 0.700000 0.000000
2.500000 0.700000 0.000000
2.600000 0.700000 0.000000
2.700000 0.700000 0.000000
2.800000 0.700000 0.000000
2.900000 0.700000 0.000000
3.000000 0.700000 0.000000
3.100000 0.700000 0.000000
3.200000 0.700000 0.000000
3.300000 0.700000 0.000000
3.400000 0.700000 0.000000
3.500000 0.700000 0.000000
3.600000 0.700000 0.000000
3.700000 0.700000 0.000000
3.800000 0.700000 0.000000
3.900000 0.700000 0.000000
4.000000 0.700000 0.000000
0.000000 0.800000 0.000000
0.100000 0.800000 0.000000
0.200000 0.800000 0.000000
0.300000 0.800000 0.000000
0.400000 0.800000 0.000000
0.500000 0.800000 0.000000
0.600000 0.800000 0.000000
0.700000 0.800000 0.000000
0.800000 0.800000 0.000000
0.900000 0.800000 0.000000
1.000000 0.800000 0.000000
1.100000 0.800000 0.000000
1.200000 0.800000 0.000000
1.300000 0.800000 0.000000
1.400000 0.800000 0.000000
1.500000 0.800000 0.000000
1.600000 0.800000 0.000000
1.700000 0.800000 0.000000
1.800000 0.800000 0.000000
1.900000 0.800000 0.000000
2.000000 0.800000 0.000000
2.100000 0.800000 0.000000
2.200000 0.800000 0.000000
2.300000 0.800000 0.000000
2.400000 0.800000 0.000000
2.500000 0.800000 0.000000
2.600000 0.800000 0.000000
2.700000 0.800000 0.000000
2.800000 0.800000 0.000000
2.900000 0.800000 0.000000
3.000000 0.800000 0.000000
3.100000 0.800000 0.000000
3.200000 0.800000 0.000000
3.300000 0.800000 0.000000
3.400000 0.800000 0.000000
3.500000 0.800000 0.000000
3.600000 0.800000 0.000000
[...]
CELL_DATA 16000
SCALARS pressure float 1
LOOKUP_TABLE default
34.6426
34.4658
34.1287
33.6651
33.1007
32.4516
31.7258
30.9243
30.0434
29.077
28.0193
26.868
25.6272
24.3096
22.9369
21.5376
20.1436
18.7851
17.4863
16.2631
15.1224
14.0633
13.0796
12.1612
11.2971
10.4762
9.68882
8.92638
8.18216
7.4509
6.72862
6.01244
5.30029
4.59073
3.88279
3.17582
2.46943
1.76341
1.05767
0.352287
34.6982
34.4959
34.1449
33.6736
33.105
32.4539
31.7272
30.9256
30.0452
29.0795
28.0224
26.8715
25.6304
24.312
22.9378
21.5368
20.1412
18.7817
17.4825
16.2595
15.1195
14.0613
13.0784
12.1607
11.2971
10.4767
9.68945
8.92709
8.18286
7.45154
6.72918
6.01291
5.30067
4.59103
3.88302
3.176
2.46956
1.76349
1.0577
0.35224
34.8185
34.5795
34.2043
33.7177
33.1402
32.4849
31.7576
30.958
30.0808
29.1183
28.063
26.9106
25.6641
24.3357
22.9483
21.5325
20.1233
18.7531
17.4474
16.2222
15.0835
14.0291
13.0511
12.1388
11.2802
10.4641
9.68036
8.92074
8.17856
7.44871
6.72739
6.01182
5.30005
4.5907
3.88287
3.17595
2.46955
1.76348
1.05765
0.352142
34.9815
34.7003
34.2952
33.789
33.2002
32.5404
31.8138
31.0186
30.1478
29.1914
28.139
26.9837
25.7264
24.3792
22.9666
21.5232
20.0882
18.6982
17.3807
16.1516
15.0155
13.9681
12.9995
12.0971
11.2478
10.4397
9.66262
8.90815
8.16986
7.44286
6.72356
6.00939
5.29855
4.58982
3.88238
3.17569
2.46943
1.7634
1.05757
0.352056
35.1663
34.843
34.4064
33.8793
33.2788
32.6152
31.8914
31.1037
30.2427
29.2953
28.2473
27.0879
25.8151
24.4405
22.9913
21.5076
20.0357
18.6175
17.2836
16.0496
14.9181
13.8813
12.9264
12.0382
11.2021
10.4055
9.63763
8.8904
8.15756
7.43454
6.71807
6.00586
5.29636
4.58851
3.88163
3.17528
2.46921
1.76328
1.05749
0.352003
35.3535
34.992
34.5258
33.9788
33.3678
32.7021
31.9832
31.2056
30.3575
29.422
28.3801
27.2162
25.9243
24.5154
23.0203
21.4862
19.9682
18.5157
17.1623
15.9235
14.7985
13.7756
12.8379
11.9673
11.1474
10.3645
9.60786
8.8693
8.14295
7.42465
6.71153
6.00165
5.29372
4.58692
3.88071
3.17478
2.46895
1.76315
1.05743
0.351986
35.5261
35.1325
34.6408
34.0767
33.4573
32.7912
32.0789
31.3133
30.48
29.5581
28.5238
27.3558
26.0436
24.5972
23.0511
21.4609
19.8923
18.4025
17.029
15.7862
14.6695
13.6624
12.7438
11.8923
11.0899
10.3217
9.5768
8.84733
8.12776
7.41439
6.70475
5.99728
5.29099
4.58526
3.87974
3.17425
2.46868
1.76303
1.05739
0.351996
35.6695
35.251
34.7394
34.1622
33.5368
32.8715
32.1663
31.4127
30.5941
29.686
28.6599
27.4888
26.1579
24.6755
23.0801
21.4356
19.8182
18.2932
16.9013
15.6559
14.5481
13.5567
12.6564
11.8232
11.037
10.2825
9.5485
8.82737
8.114
7.4051
6.69863
5.99334
5.28851
4.58376
3.87887
3.17377
2.46844
1.76293
1.05736
0.352021
35.7719
35.3367
34.8115
34.2253
33.5962
32.9324
32.2332
31.4894
30.6827
29.7861
28.7671
27.5942
26.2489
24.7381
23.103
21.4148
19.7583
18.2056
16.7999
15.5531
14.453
13.4745
12.5889
11.77
10.9966
10.2526
9.52696
8.81221
8.10356
7.39807
6.694
5.99036
5.28665
4.58263
3.87822
3.17341
2.46826
1.76286
1.05735
0.352048
35.8253
35.3815
34.8495
34.2589
33.6281
32.9652
32.2695
31.5313
30.7313
29.8412
28.8264
27.6528
26.2997
24.7731
23.1158
21.403
19.7247
18.1567
16.7436
15.4964
14.4008
13.4295
12.5521
11.7412
10.9746
10.2364
9.51534
8.80405
8.09796
7.3943
6.69152
5.98877
5.28566
4.58203
3.87787
3.17322
2.46817
1.76282
1.05735
0.352066
35.8253
35.3816
34.8495
34.259
33.6281
32.9652
32.2695
31.5313
30.7313
29.8413
28.8264
27.6528
26.2997
24.7731
23.1158
21.403
19.7247
18.1568
16.7437
15.4965
14.4009
13.4296
12.5523
11.7413
10.9748
10.2365
9.51543
8.80412
8.09802
7.39435
6.69156
5.9888
5.28568
4.58205
3.87788
3.17323
2.46817
1.76283
1.05735
0.352066
35.772
35.3367
34.8116
34.2254
33.5963
32.9325
32.2333
31.4896
30.6828
29.7862
28.7671
27.5943
26.2489
24.7381
23.103
21.4148
19.7585
18.2058
16.8002
15.5535
14.4534
13.4749
12.5893
11.7704
10.9969
10.2529
9.52721
8.81242
8.10373
7.39821
6.69411
5.99045
5.28672
4.58268
3.87825
3.17344
2.46828
1.76287
1.05736
0.352051
35.6696
35.2512
34.7396
34.1623
33.5369
32.8717
32.1665
31.4129
30.5942
29.6862
28.66
27.4888
26.1579
24.6755
23.0801
21.4357
19.8184
18.2936
16.9018
15.6565
14.5487
13.5574
12.6571
11.8238
11.0376
10.283
9.5489
8.8277
8.11427
7.40532
6.6988
5.99348
5.28862
4.58384
3.87893
3.17381
2.46847
1.76294
1.05737
0.352025
35.5263
35.1327
34.641
34.0769
33.4576
32.7914
32.0791
31.3136
30.4802
29.5583
28.524
27.3559
26.0437
24.5972
23.0512
21.4612
19.8927
18.4031
17.0297
15.787
14.6704
13.6633
12.7446
11.8931
11.0906
10.3223
9.57733
8.84777
8.12813
7.41468
6.70499
5.99747
5.29113
4.58536
3.87982
3.1743
2.46871
1.76305
1.0574
0.352
35.3538
34.9922
34.526
33.979
33.3681
32.7024
31.9835
31.2059
30.3578
29.4222
28.3803
27.2163
25.9244
24.5155
23.0205
21.4865
19.9687
18.5164
17.1631
15.9245
14.7995
13.7766
12.8389
11.9682
11.1482
10.3653
9.60849
8.86982
8.14338
7.425
6.71181
6.00187
5.29389
4.58704
3.8808
3.17484
2.46899
1.76318
1.05744
0.35199
35.1666
34.8432
34.4067
33.8795
33.2791
32.6155
31.8917
31.1039
30.243
29.2956
28.2476
27.0881
25.8153
24.4406
22.9915
21.508
20.0363
18.6183
17.2845
16.0507
14.9192
13.8825
12.9275
12.0392
11.2031
10.4063
9.63832
8.89099
8.15804
7.43493
6.71837
6.0061
5.29654
4.58864
3.88172
3.17535
2.46925
1.7633
1.0575
0.352008
34.9818
34.7006
34.2955
33.7893
33.2005
32.5407
31.8141
31.0189
30.1481
29.1917
28.1393
26.9839
25.7266
24.3795
22.967
21.5237
20.0889
18.6991
17.3817
16.1527
15.0167
13.9693
13.0007
12.0982
11.2488
10.4406
9.66334
8.90876
8.17036
7.44326
6.72387
6.00963
5.29874
4.58996
3.88248
3.17576
2.46946
1.76342
1.05757
0.352059
34.8188
34.5797
34.2046
33.718
33.1405
32.4852
31.7579
30.9583
30.0811
29.1186
28.0632
26.9109
25.6643
24.336
22.9487
21.5331
20.124
18.754
17.4485
16.2234
15.0847
14.0303
13.0523
12.1399
11.2812
10.4649
9.6811
8.92135
8.17906
7.44912
6.72771
6.01207
5.30023
4.59083
3.88296
3.176
2.46959
1.76349
1.05765
0.352142
34.6985
34.4962
34.1452
33.6739
33.1053
32.4542
31.7275
30.9259
30.0454
29.0797
28.0227
26.8717
25.6307
24.3123
22.9382
21.5374
20.142
18.7826
17.4836
16.2607
15.1207
14.0625
13.0795
12.1618
11.2981
10.4775
9.69016
8.92768
8.18335
7.45193
6.72949
6.01314
5.30084
4.59115
3.8831
3.17605
2.46959
1.7635
1.0577
0.352237
34.6429
34.466
34.129
33.6654
33.1009
32.4519
31.7261
30.9246
30.0437
29.0773
28.0196
26.8683
25.6275
24.31
22.9374
21.5382
20.1444
18.786
17.4873
16.2642
15.1235
14.0645
13.0807
12.1622
11.298
10.4771
9.6895
8.92695
8.18263
7.45127
6.72891
6.01266
5.30045
4.59084
3.88286
3.17586
2.46945
1.76341
1.05766
0.352282
34.6982
34.4959
34.1449
33.6736
33.105
32.4539
31.7272
30.9256
30.0451
29.0795
28.0224
26.8714
25.6304
24.3119
22.9378
21.5368
20.1412
18.7817
17.4825
16.2595
15.1195
14.0613
13.0784
12.1607
11.2971
10.4767
9.68945
8.92709
8.18287
7.45154
6.72919
6.01291
5.30067
4.59103
3.88302
3.176
2.46957
1.76349
1.0577
0.35224
34.7419
34.5012
34.1314
33.6514
33.0785
32.4246
31.6954
30.8915
30.0089
29.042
27.9853
26.837
25.6014
24.291
22.927
21.5371
20.1523
18.8019
17.5095
16.2904
15.1515
14.0923
13.1067
12.1856
11.3181
10.4939
9.70312
8.93772
8.19097
7.4576
6.73363
6.01613
5.30297
4.59265
3.88415
3.17678
2.47011
1.76388
1.05796
0.352313
34.8581
34.5714
34.1727
33.6753
33.0922
32.4327
31.7011
30.8966
30.0148
29.0492
27.9937
26.8457
25.609
24.296
22.928
21.5338
20.1452
18.7924
17.4992
16.2807
15.1435
14.0864
13.103
12.1837
11.3177
10.4944
9.70428
8.93917
8.19247
7.45903
6.73492
6.01723
5.30387
4.59338
3.88472
3.17722
2.47044
1.76411
1.05808
0.352296
35.0243
34.6858
34.2528
33.7333
33.137
32.471
31.7376
30.9348
30.0565
29.0945
28.0408
26.8909
25.6472
24.3219
22.9376
21.5255
20.1207
18.7557
17.4555
16.2354
15.1007
14.0488
13.0719
12.1591
11.2992
10.481
9.69492
8.9329
8.18845
7.45658
6.73353
6.01652
5.30359
4.59334
3.88481
3.17736
2.47058
1.76422
1.05814
0.352279
35.216
34.8257
34.3571
33.8141
33.204
32.5318
31.7983
30.9994
30.1273
29.1712
28.1201
26.9665
25.7109
24.3648
22.9533
21.5115
20.0796
18.6944
17.3827
16.1597
15.0287
13.985
13.0184
12.1163
11.2662
10.4565
9.67729
8.92058
8.1801
7.45109
6.73004
6.0144
5.30237
4.59269
3.88451
3.17727
2.47059
1.76426
1.05817
0.352289
35.4114
34.9736
34.4715
33.9063
33.2834
32.6064
31.8744
31.0818
30.2183
29.2701
28.2226
27.0645
25.7933
24.4202
22.9729
21.4922
20.0252
18.614
17.2879
16.0615
14.9359
13.9029
12.9496
12.0612
11.2237
10.4247
9.65424
8.90431
8.16892
7.44362
6.72518
6.01135
5.30052
4.59163
3.88395
3.177
2.47049
1.76424
1.05819
0.352329
35.5919
35.1138
34.5828
33.9983
33.3648
32.6846
31.9557
31.1709
30.3174
29.3786
28.3357
27.1732
25.8851
24.4819
22.9943
21.4696
19.9633
18.5235
17.1822
15.9529
14.8338
13.8132
12.8747
12.0014
11.1776
10.3903
9.62923
8.88662
8.15672
7.4354
6.7198
6.00792
5.29842
4.59039
3.88326
3.17665
2.47034
1.7642
1.05821
0.352389
35.7417
35.2323
34.6785
34.079
33.4375
32.7557
32.0307
31.2539
30.4107
29.4814
28.4437
27.2777
25.9738
24.5416
23.0146
21.447
19.9025
18.4355
17.0804
15.8492
14.7371
13.7288
12.8047
11.9456
11.1347
10.3583
9.60604
8.87021
8.14538
7.42776
6.71478
6.00471
5.29643
4.58921
3.8826
3.17631
2.47018
1.76416
1.05823
0.352455
35.8488
35.3179
34.7486
34.1388
33.4921
32.8098
32.0883
31.3181
30.4833
29.5621
28.5291
27.3609
26.0449
24.5897
23.0309
21.4284
19.8533
18.365
16.9993
15.7674
14.6614
13.6629
12.7503
11.9025
11.1016
10.3337
9.58823
8.85763
8.13669
7.4219
6.71092
6.00223
5.29489
4.58829
3.88208
3.17603
2.47006
1.76412
1.05825
0.352511
35.9045
35.3628
34.7855
34.1706
33.5214
32.8389
32.1195
31.3532
30.5232
29.6066
28.5763
27.4071
26.0847
24.6166
23.0399
21.4178
19.8256
18.3255
16.9543
15.7222
14.6197
13.6269
12.7206
11.879
11.0837
10.3204
9.57861
8.85083
8.13201
7.41874
6.70884
6.00091
5.29407
4.5878
3.8818
3.17589
2.47
1.7641
1.05826
0.352543
35.9045
35.3628
34.7855
34.1706
33.5214
32.839
32.1195
31.3532
30.5232
29.6066
28.5763
27.4071
26.0847
24.6166
23.0399
21.4179
19.8256
18.3256
16.9544
15.7223
14.6198
13.627
12.7208
11.8791
11.0838
10.3205
9.57869
8.8509
8.13206
7.41879
6.70888
6.00093
5.29409
4.58782
3.88181
3.1759
2.47
1.76411
1.05826
0.352543
35.8489
35.318
34.7486
34.1389
33.4922
32.8099
32.0884
31.3182
30.4834
29.5622
28.5291
27.3609
26.0449
24.5897
23.0309
21.4285
19.8534
18.3652
16.9997
15.7678
14.6617
13.6633
12.7507
11.9028
11.1019
10.334
9.58846
8.85782
8.13685
7.42203
6.71102
6.00232
5.29496
4.58834
3.88211
3.17606
2.47008
1.76413
1.05825
0.352511
35.7419
35.2324
34.6786
34.0791
33.4377
32.7559
32.0309
31.254
30.4108
29.4816
28.4438
27.2778
25.9739
24.5417
23.0147
21.4471
19.9028
18.4359
17.0808
15.8498
14.7377
13.7294
12.8052
11.9461
11.1352
10.3587
9.60641
8.87053
8.14564
7.42797
6.71494
6.00484
5.29653
4.58929
3.88265
3.17635
2.47021
1.76417
1.05823
0.352454
35.5921
35.114
34.5829
33.9985
33.365
32.6848
31.9559
31.1711
30.3177
29.3788
28.3359
27.1733
25.8852
24.482
22.9944
21.4698
19.9637
18.524
17.1828
15.9536
14.8346
13.814
12.8755
12.0021
11.1782
10.3908
9.62972
8.88703
8.15706
7.43568
6.72002
6.0081
5.29855
4.59049
3.88334
3.1767
2.47037
1.76422
1.05821
0.352388
35.4117
34.9739
34.4717
33.9065
33.2837
32.6067
31.8747
31.0821
30.2185
29.2703
28.2228
27.0647
25.7934
24.4204
22.9731
21.4925
20.0257
18.6146
17.2887
16.0624
14.9368
13.9039
12.9505
12.062
11.2244
10.4254
9.65482
8.9048
8.16933
7.44395
6.72545
6.01155
5.30068
4.59175
3.88403
3.17706
2.47052
1.76426
1.05819
0.352327
35.2163
34.8259
34.3573
33.8143
33.2043
32.5321
31.7985
30.9997
30.1276
29.1714
28.1203
26.9668
25.7111
24.3651
22.9536
21.5119
20.0802
18.6951
17.3836
16.1606
15.0298
13.9861
13.0194
12.1173
11.2671
10.4573
9.67794
8.92113
8.18055
7.45146
6.73033
6.01463
5.30254
4.59282
3.8846
3.17733
2.47062
1.76427
1.05817
0.352287
35.0246
34.686
34.2531
33.7335
33.1373
32.4712
31.7379
30.9351
30.0568
29.0948
28.0411
26.8912
25.6475
24.3222
22.938
21.526
20.1213
18.7565
17.4565
16.2365
15.1018
14.0499
13.0729
12.1601
11.3001
10.4818
9.69561
8.93348
8.18893
7.45697
6.73383
6.01676
5.30377
4.59347
3.8849
3.17742
2.47062
1.76424
1.05814
0.352276
34.8584
34.5717
34.173
33.6755
33.0924
32.433
31.7014
30.8969
30.0151
29.0494
27.9939
26.846
25.6093
24.2963
22.9285
21.5344
20.146
18.7933
17.5002
16.2818
15.1446
14.0875
13.1041
12.1847
11.3186
10.4952
9.70497
8.93975
8.19296
7.45942
6.73522
6.01746
5.30405
4.5935
3.88481
3.17728
2.47047
1.76412
1.05808
0.352292
34.7422
34.5015
34.1316
33.6516
33.0787
32.4249
31.6957
30.8918
30.0092
29.0423
27.9856
26.8373
25.6017
24.2914
22.9274
21.5376
20.153
18.8028
17.5105
16.2915
15.1526
14.0934
13.1078
12.1866
11.319
10.4946
9.70381
8.9383
8.19143
7.45797
6.73393
6.01636
5.30313
4.59276
3.88422
3.17683
2.47013
1.76388
1.05795
0.352308
34.6985
34.4962
34.1452
33.6739
33.1053
32.4542
31.7275
30.9259
30.0455
29.0798
28.0227
26.8717
25.6307
24.3123
22.9382
21.5373
20.142
18.7826
17.4835
16.2606
15.1206
14.0624
13.0794
12.1617
11.298
10.4775
9.69011
8.92764
8.18331
7.4519
6.72946
6.01312
5.30082
4.59114
3.88309
3.17604
2.46958
1.76349
1.05769
0.35223
34.8185
34.5795
34.2043
33.7177
33.1402
32.4849
31.7576
30.9579
30.0807
29.1183
28.0629
26.9106
25.664
24.3357
22.9482
21.5325
20.1233
18.7531
17.4474
16.2223
15.0835
14.0291
13.0512
12.1388
11.2802
10.4641
9.68038
8.92075
8.17857
7.44872
6.7274
6.01183
5.30005
4.5907
3.88287
3.17595
2.46955
1.76348
1.05765
0.352142
34.8581
34.5714
34.1727
33.6753
33.0922
32.4327
31.7011
30.8966
30.0148
29.0491
27.9936
26.8457
25.609
24.2959
22.928
21.5338
20.1452
18.7924
17.4992
16.2807
15.1435
14.0864
13.103
12.1837
11.3177
10.4944
9.70429
8.93917
8.19248
7.45904
6.73492
6.01723
5.30387
4.59338
3.88472
3.17722
2.47044
1.76411
1.05808
0.352296
34.9701
34.6327
34.2013
33.6838
33.0888
32.4221
31.6862
30.8794
29.9966
29.0312
27.977
26.831
25.5969
24.2866
22.9216
21.5306
20.1457
18.7968
17.5075
16.2924
15.1576
14.1018
13.1186
12.1985
11.3312
10.5062
9.71427
8.9474
8.19909
7.46424
6.73894
6.02029
5.30617
4.59508
3.88597
3.17813
2.47109
1.76456
1.05835
0.352327
35.1366
34.7425
34.2731
33.731
33.1209
32.4461
31.7069
30.9001
30.0196
29.0573
28.0052
26.8589
25.6203
24.3014
22.9246
21.5208
20.1249
18.7688
17.4767
16.2627
15.1316
14.0809
13.1029
12.1876
11.3242
10.5022
9.71233
8.94685
8.19939
7.465
6.7399
6.02127
5.30708
4.59588
3.88664
3.17868
2.47152
1.76487
1.05853
0.352358
35.3328
34.8813
34.3725
33.8045
33.1787
32.4961
31.7553
30.9513
30.0762
29.1195
28.0705
26.9218
25.673
24.3355
22.9338
21.5033
20.084
18.7117
17.4119
16.1979
15.0725
14.0304
13.0621
12.1562
11.3009
10.4856
9.70099
8.9394
8.19472
7.46225
6.73841
6.02059
5.30689
4.59596
3.88685
3.17893
2.47177
1.76508
1.05867
0.352421
35.5353
35.0305
34.4844
33.8918
33.2514
32.5626
31.8221
31.0234
30.1564
29.2078
28.1634
27.0114
25.7482
24.3843
22.9471
21.4784
20.0259
18.6309
17.3207
16.107
14.9893
13.959
13.0039
12.1107
11.2666
10.4606
9.68335
8.92731
8.1867
7.45711
6.73526
6.01877
5.30592
4.59551
3.88672
3.17896
2.47188
1.76521
1.05879
0.352519
35.7237
35.173
34.5946
33.9805
33.328
32.6348
31.8964
31.1049
30.2479
29.3094
28.271
27.1161
25.8369
24.4421
22.9626
21.4484
19.9568
18.5359
17.2146
16.0022
14.8941
13.8777
12.9378
12.059
11.2276
10.432
9.66295
8.91316
8.17716
7.45086
6.7313
6.01636
5.30454
4.59478
3.88639
3.17886
2.4719
1.76529
1.0589
0.352638
35.8808
35.2941
34.69
34.0592
33.3974
32.7016
31.9664
31.1826
30.3362
29.4085
28.3771
27.2207
25.9265
24.5011
22.9784
21.4173
19.8862
18.4401
17.1092
15.8996
14.8019
13.7996
12.8746
12.0097
11.1904
10.4047
9.64346
8.89959
8.16795
7.44478
6.7274
6.01395
5.30311
4.594
3.886
3.17871
2.47188
1.76534
1.05898
0.352756
35.9932
35.3818
34.7601
34.1177
33.4499
32.7529
32.0208
31.2436
30.4061
29.4877
28.463
27.3065
26.0011
24.5508
22.9917
21.391
19.8269
18.3609
17.0234
15.817
14.7284
13.7379
12.825
11.9712
11.1614
10.3835
9.62829
8.88902
8.16075
7.44001
6.72433
6.01204
5.30197
4.59335
3.88566
3.17857
2.47185
1.76536
1.05905
0.352851
36.0519
35.4278
34.7972
34.149
33.4782
32.7807
32.0504
31.2771
30.4448
29.5318
28.5112
27.3552
26.0439
24.5797
22.9995
21.3756
19.7925
18.3155
16.9748
15.7708
14.6878
13.704
12.7978
11.9502
11.1456
10.3719
9.62004
8.88327
8.15685
7.43742
6.72266
6.011
5.30135
4.593
3.88548
3.17849
2.47183
1.76538
1.05908
0.352904
36.0519
35.4278
34.7972
34.149
33.4782
32.7807
32.0505
31.2771
30.4448
29.5319
28.5113
27.3552
26.0439
24.5797
22.9995
21.3756
19.7925
18.3156
16.975
15.771
14.6879
13.7041
12.7979
11.9503
11.1457
10.372
9.62011
8.88333
8.1569
7.43746
6.7227
6.01102
5.30137
4.59302
3.88549
3.1785
2.47183
1.76538
1.05908
0.352903
35.9933
35.3819
34.7602
34.1178
33.45
32.753
32.0209
31.2436
30.4062
29.4878
28.463
27.3065
26.001
24.5507
22.9917
21.3911
19.827
18.3611
17.0237
15.8174
14.7288
13.7383
12.8253
11.9715
11.1617
10.3837
9.62851
8.8892
8.16091
7.44014
6.72444
6.01212
5.30203
4.5934
3.8857
3.17859
2.47186
1.76537
1.05905
0.352849
35.8809
35.2942
34.6902
34.0593
33.3976
32.7018
31.9666
31.1827
30.3364
29.4086
28.3772
27.2208
25.9265
24.5011
22.9784
21.4175
19.8865
18.4406
17.1098
15.9002
14.8025
13.8002
12.8751
12.0102
11.1909
10.4051
9.64382
8.89989
8.1682
7.44498
6.72757
6.01408
5.30321
4.59407
3.88605
3.17875
2.4719
1.76535
1.05899
0.352752
35.7239
35.1732
34.5948
33.9807
33.3282
32.635
31.8966
31.1051
30.2482
29.3096
28.2712
27.1163
25.837
24.4422
22.9628
21.4486
19.9572
18.5364
17.2152
16.003
14.8949
13.8785
12.9385
12.0597
11.2282
10.4326
9.66342
8.91356
8.17749
7.45113
6.73152
6.01653
5.30467
4.59488
3.88646
3.17891
2.47193
1.76531
1.0589
0.352632
35.5356
35.0307
34.4846
33.892
33.2517
32.5628
31.8223
31.0237
30.1567
29.2081
28.1636
27.0116
25.7484
24.3845
22.9473
21.4787
20.0264
18.6316
17.3215
16.1079
14.9902
13.9599
13.0048
12.1115
11.2674
10.4613
9.68392
8.92779
8.1871
7.45743
6.73552
6.01897
5.30607
4.59563
3.8868
3.17902
2.47191
1.76523
1.0588
0.352512
35.3331
34.8816
34.3727
33.8047
33.1789
32.4964
31.7556
30.9516
30.0765
29.1198
28.0708
26.9221
25.6733
24.3358
22.9341
21.5037
20.0846
18.7124
17.4127
16.1989
15.0735
14.0314
13.0631
12.1571
11.3017
10.4863
9.70162
8.93993
8.19516
7.4626
6.7387
6.02082
5.30706
4.59608
3.88694
3.17899
2.4718
1.7651
1.05868
0.352413
35.1369
34.7428
34.2733
33.7313
33.1212
32.4464
31.7072
30.9004
30.02
29.0576
28.0055
26.8591
25.6206
24.3017
22.925
21.5213
20.1256
18.7697
17.4776
16.2637
15.1327
14.0819
13.1039
12.1886
11.3251
10.5029
9.713
8.94741
8.19986
7.46538
6.74019
6.0215
5.30726
4.59601
3.88673
3.17874
2.47156
1.76489
1.05853
0.352349
34.9704
34.6329
34.2015
33.6841
33.0891
32.4224
31.6865
30.8797
29.9969
29.0315
27.9773
26.8313
25.5971
24.2869
22.9221
21.5312
20.1464
18.7977
17.5085
16.2935
15.1587
14.1029
13.1196
12.1995
11.3321
10.507
9.71495
8.94797
8.19956
7.46462
6.73924
6.02052
5.30634
4.5952
3.88605
3.17818
2.47112
1.76457
1.05835
0.352317
34.8584
34.5717
34.173
33.6755
33.0924
32.433
31.7014
30.8969
30.0151
29.0494
27.9939
26.8459
25.6092
24.2963
22.9285
21.5344
20.146
18.7934
17.5002
16.2819
15.1447
14.0876
13.1041
12.1847
11.3186
10.4952
9.70496
8.93973
8.19293
7.4594
6.7352
6.01744
5.30403
4.59349
3.88479
3.17726
2.47046
1.76411
1.05807
0.352286
34.8188
34.5797
34.2046
33.718
33.1405
32.4852
31.7579
30.9583
30.0811
29.1186
28.0632
26.9109
25.6643
24.336
22.9486
21.5331
20.124
18.754
17.4485
16.2234
15.0847
14.0302
13.0522
12.1398
11.2811
10.4648
9.68101
8.92127
8.17899
7.44905
6.72765
6.01201
5.30018
4.59079
3.88292
3.17597
2.46956
1.76347
1.05763
0.352125
34.9815
34.7003
34.2952
33.789
33.2002
32.5404
31.8138
31.0186
30.1478
29.1913
28.1389
26.9836
25.7263
24.3791
22.9665
21.5231
20.0882
18.6982
17.3807
16.1516
15.0156
13.9682
12.9996
12.0972
11.2479
10.4398
9.66265
8.90817
8.16988
7.44287
6.72356
6.00939
5.29855
4.58983
3.88239
3.1757
2.46943
1.7634
1.05757
0.352057
35.0243
34.6858
34.2528
33.7333
33.137
32.4709
31.7376
30.9347
30.0564
29.0944
28.0407
26.8908
25.6471
24.3218
22.9376
21.5255
20.1206
18.7557
17.4556
16.2355
15.1008
14.0489
13.0719
12.1592
11.2992
10.481
9.69494
8.93291
8.18846
7.45659
6.73353
6.01653
5.30359
4.59334
3.88481
3.17736
2.47058
1.76422
1.05814
0.352279
35.1366
34.7425
34.2731
33.731
33.1209
32.4461
31.7068
30.9001
30.0196
29.0573
28.0052
26.8588
25.6203
24.3014
22.9246
21.5208
20.1249
18.7688
17.4767
16.2627
15.1316
14.0809
13.1029
12.1876
11.3242
10.5022
9.71234
8.94686
8.1994
7.465
6.7399
6.02127
5.30709
4.59588
3.88664
3.17868
2.47152