# vtk DataFile Version 2.0
I need something to put here
ASCII

DATASET STRUCTURED_GRID
DIMENSIONS 41 21 21
POINTS 18081 float
0.000000 0.000000 0.000000
0.100000 0.000000 0.000000
0.200000 0.000000 0.000000
0.300000 0.000000 0.000000
0.400000 0.000000 0.000000
0.500000 0.000000 0.000000
0.600000 0.000000 0.000000
0.700000 0.000000 0.000000
0.800000 0.000000 0.000000
0.900000 0.000000 0.000000
1.000000 0.000000 0.000000
1.100000 0.000000 0.000000
1.200000 0.000000 0.000000
1.300000 0.000000 0.000000
1.400000 0.000000 0.000000
1.500000 0.000000 0.000000
1.600000 0.000000 0.000000
1.700000 0.000000 0.000000
1.800000 0.000000 0.000000
1.900000 0.000000 0.000000
2.000000 0.000000 0.000000
2.100000 0.000000 0.000000
2.200000 0.000000 0.000000
2.300000 0.000000 0.000000
2.400000 0.000000 0.000000
2.500000 0.000000 0.000000
2.600000 0.000000 0.000000
2.700000 0.000000 0.000000
2.800000 0.000000 0.000000
2.900000 0.000000 0.000000
3.000000 0.000000 0.000000
3.100000 0.000000 0.000000
3.200000 0.000000 0.000000
3.300000 0.000000 0.000000
3.400000 0.000000 0.000000
3.500000 0.000000 0.000000
3.600000 0.000000 0.000000
3.700000 0.000000 0.000000
3.800000 0.000000 0.000000
3.900000 0.000000 0.000000
4.000000 0.000000 0.000000
0.000000 0.100000 0.000000
0.100000 0.100000 0.000000
0.200000 0.100000 0.000000
0.300000 0.100000 0.000000
0.400000 0.100000 0.000000
0.500000 0.100000 0.000000
0.600000 0.100000 0.000000
0.700000 0.100000 0.000000
0.800000 0.100000 0.000000
0.900000 0.100000 0.000000
1.000000 0.100000 0.000000
1.100000 0.100000 0.000000
1.200000 0.100000 0.000000
1.300000 0.100000 0.000000
1.400000 0.100000 0.000000
1.500000 0.100000 0.000000
1.600000 0.100000 0.000000
1.700000 0.100000 0.000000
1.800000 0.100000 0.000000
1.900000 0.100000 0.000000
2.000000 0.100000 0.000000
2.100000 0.100000 0.000000
2.200000 0.100000 0.000000
2.300000 0.100000 0.000000
2.400000 0.100000 0.000000
2.500000 0.100000 0.000000
2.600000 0.100000 0.000000
2.700000 0.100000 0.000000
2.800000 0.100000 0.000000
2.900000 0.100000 0.000000
3.000000 0.100000 0.000000
3.100000 0.100000 0.000000
3.200000 0.100000 0.000000
3.300000 0.100000 0.000000
3.400000 0.100000 0.000000
3.500000 0.100000 0.000000
3.600000 0.100000 0.000000
3.700000 0.100000 0.000000
3.800000 0.100000 0.000000
3.900000 0.100000 0.000000
4.000000 0.100000 0.000000
0.000000 0.200000 0.000000
0.100000 0.200000 0.000000
0.200000 0.200000 0.000000
0.300000 0.200000 0.000000
0.400000 0.200000 0.000000
0.500000 0.200000 0.000000
0.600000 0.200000 0.000000
0.700000 0.200000 0.000000
0.800000 0.200000 0.000000
0.900000 0.200000 0.000000
1.000000 0.200000 0.000000
1.100000 0.200000 0.000000
1.200000 0.200000 0.000000
1.300000 0.200000 0.000000
1.400000 0.200000 0.000000
1.500000 0.200000 0.000000
1.600000 0.200000 0.000000
1.700000 0.200000 0.000000
1.800000 0.200000 0.000000
1.900000 0.200000 0.000000
2.000000 0.200000 0.000000
2.100000 0.200000 0.000000
2.200000 0.200000 0.000000
2.300000 0.200000 0.000000
2.400000 0.200000 0.000000
2.500000 0.200000 0.000000
2.600000 0.200000 0.000000
2.700000 0.200000 0.000000
2.800000 0.200000 0.000000
2.900000 0.200000 0.000000
3.000000 0.200000 0.000000
3.100000 0.200000 0.000000
3.200000 0.200000 0.000000
3.300000 0.200000 0.000000
3.400000 0.200000 0.000000
3.500000 0.200000 0.000000
3.600000 0.200000 0.000000
3.700000 0.200000 0.000000
3.800000 0.200000 0.000000
3.900000 0.200000 0.000000
4.000000 0.200000 0.000000
0.000000 0.300000 0.000000
0.100000 0.300000 0.000000
0.200000 0.300000 0.000000
0.300000 0.300000 0.000000
0.400000 0.300000 0.000000
0.500000 0.300000 0.000000
0.600000 0.300000 0.000000
0.700000 0.300000 0.000000
0.800000 0.300000 0.000000
0.900000 0.300000 0.000000
1.000000 0.300000 0.000000
1.100000 0.300000 0.000000
1.200000 0.300000 0.000000
1.300000 0.300000 0.000000
1.400000 0.300000 0.000000
1.500000 0.300000 0.000000
1.600000 0.300000 0.000000
1.700000 0.300000 0.000000
1.800000 0.300000 0.000000
1.900000 0.300000 0.000000
2.000000 0.300000 0.000000
2.100000 0.300000 0.000000
2.200000 0.300000 0.000000
2.300000 0.300000 0.000000
2.400000 0.300000 0.000000
2.500000 0.300000 0.000000
2.600000 0.300000 0.000000
2.700000 0.300000 0.000000
2.800000 0.300000 0.000000
2.900000 0.300000 0.000000
3.000000 0.300000 0.000000
3.100000 0.300000 0.000000
3.200000 0.300000 0.000000
3.300000 0.300000 0.000000
3.400000 0.300000 0.000000
3.500000 0.300000 0.000000
3.600000 0.300000 0.000000
3.700000 0.300000 0.000000
3.800000 0.300000 0.000000
3.900000 0.300000 0.000000
4.000000 0.300000 0.000000
0.000000 0.400000 0.000000
0.100000 0.400000 0.000000
0.200000 0.400000 0.000000
0.300000 0.400000 0.000000
0.400000 0.400000 0.000000
0.500000 0.400000 0.000000
0.600000 0.400000 0.000000
0.700000 0.400000 0.000000
0.800000 0.400000 0.000000
0.900000 0.400000 0.000000
1.000000 0.400000 0.000000
1.100000 0.400000 0.000000
1.200000 0.400000 0.000000
1.300000 0.400000 0.000000
1.400000 0.400000 0.000000
1.500000 0.400000 0.000000
1.600000 0.400000 0.000000
1.700000 0.400000 0.000000
1.800000 0.400000 0.000000
1.900000 0.400000 0.000000
2.000000 0.400000 0.000000
2.100000 0.400000 0.000000
2.200000 0.400000 0.000000
2.300000 0.400000 0.000000
2.400000 0.400000 0.000000
2.500000 0.400000 0.000000
2.600000 0.400000 0.000000
2.700000 0.400000 0.000000
2.800000 0.400000 0.000000
2.900000 0.400000 0.000000
3.000000 0.400000 0.000000
3.100000 0.400000 0.000000
3.200000 0.400000 0.000000
3.300000 0.400000 0.000000
3.400000 0.400000 0.000000
3.500000 0.400000 0.000000
3.600000 0.400000 0.000000
3.700000 0.400000 0.000000
3.800000 0.400000 0.000000
3.900000 0.400000 0.000000
4.000000 0.400000 0.000000
0.000000 0.500000 0.000000
0.100000 0.500000 0.000000
0.200000 0.500000 0.000000
0.300000 0.500000 0.000000
0.400000 0.500000 0.000000
0.500000 0.500000 0.000000
0.600000 0.500000 0.000000
0.700000 0.500000 0.000000
0.800000 0.500000 0.000000
0.900000 0.500000 0.000000
1.000000 0.500000 0.000000
1.100000 0.500000 0.000000
1.200000 0.500000 0.000000
1.300000 0.500000 0.000000
1.400000 0.500000 0.000000
1.500000 0.500000 0.000000
1.600000 0.500000 0.000000
1.700000 0.500000 0.000000
1.800000 0.500000 0.000000
1.900000 0.500000 0.000000
2.000000 0.500000 0.000000
2.100000 0.500000 0.000000
2.200000 0.500000 0.000000
2.300000 0.500000 0.000000
2.400000 0.500000 0.000000
2.500000 0.500000 0.000000
2.600000 0.500000 0.000000
2.700000 0.500000 0.000000
2.800000 0.500000 0.000000
2.900000 0.500000 0.000000
3.000000 0.500000 0.000000
3.100000 0.500000 0.000000
3.200000 0.500000 0.000000
3.300000 0.500000 0.000000
3.400000 0.500000 0.000000
3.500000 0.500000 0.000000
3.600000 0.500000 0.000000
3.700000 0.500000 0.000000
3.800000 0.500000 0.000000
3.900000 0.500000 0.000000
4.000000 0.500000 0.000000
0.000000 0.600000 0.000000
0.100000 0.600000 0.000000
0.200000 0.600000 0.000000
0.300000 0.600000 0.000000
0.400000 0.600000 0.000000
0.500000 0.600000 0.000000
0.600000 0.600000 0.000000
0.700000 0.600000 0.000000
0.800000 0.600000 0.000000
0.900000 0.600000 0.000000
1.000000 0.600000 0.000000
1.100000 0.600000 0.000000
1.200000 0.600000 0.000000
1.300000 0.600000 0.000000
1.400000 0.600000 0.000000
1.500000 0.600000 0.000000
1.600000 0.600000 0.000000
1.700000 0.600000 0.000000
1.800000 0.600000 0.000000
1.900000 0.600000 0.000000
2.000000 0.600000 0.000000
2.100000 0.600000 0.000000
2.200000 0.600000 0.000000
2.300000 0.600000 0.000000
2.400000 0.600000 0.000000
2.500000 0.600000 0.000000
2.600000 0.600000 0.000000
2.700000 0.600000 0.000000
2.800000 0.600000 0.000000
2.900000 0.600000 0.000000
3.000000 0.600000 0.000000
3.100000 0.600000 0.000000
3.200000 0.600000 0.000000
3.300000 0.600000 0.000000
3.400000 0.600000 0.000000
3.500000 0.600000 0.000000
3.600000 0.600000 0.000000
3.700000 0.600000 0.000000
3.800000 0.600000 0.000000
3.900000 0.600000 0.000000
4.000000 0.600000 0.000000
0.000000 0.700000 0.000000
0.100000 0.700000 0.000000
0.200000 0.700000 0.000000
0.300000 0.700000 0.000000
0.400000 0.700000 0.000000
0.500000 0.700000 0.000000
0.600000 0.700000 0.000000
0.700000 0.700000 0.000000
0.800000 0.700000 0.000000
0.900000 0.700000 0.000000
1.000000 0.700000 0.000000
1.100000 0.700000 0.000000
1.200000 0.700000 0.000000
1.300000 0.700000 0.000000
1.400000 0.700000 0.000000
1.500000 0.700000 0.000000
1.600000 0.700000 0.000000
1.700000 0.700000 0.000000
1.800000 0.700000 0.000000
1.900000 0.700000 0.000000
2.000000 0.700000 0.000000
2.100000 0.700000 0.000000
2.200000 0.700000 0.000000
2.300000 0.700000 0.000000
2.400000 0.700000 0.000000
2.500000 0.700000 0.000000
2.600000 0.700000 0.000000
2.700000 0.700000 0.000000
2.800000 0.700000 0.000000
2.900000 0.700000 0.000000
3.000000 0.700000 0.000000
3.100000 0.700000 0.000000
3.200000 0.700000 0.000000
3.300000 0.700000 0.000000
3.400000 0.700000 0.000000
3.500000 0.700000 0.000000
3.600000 0.700000 0.000000
3.700000 0.700000 0.000000
3.800000 0.700000 0.000000
3.900000 0.700000 0.000000
4.000000 0.700000 0.000000
0.000000 0.800000 0.000000
0.100000 0.800000 0.000000
0.200000 0.800000 0.000000
0.300000 0.800000 0.000000
0.400000 0.800000 0.000000
0.500000 0.800000 0.000000
0.600000 0.800000 0.000000
0.700000 0.800000 0.000000
0.800000 0.800000 0.000000
0.900000 0.800000 0.000000
1.000000 0.800000 0.000000
1.100000 0.800000 0.000000
1.200000 0.800000 0.000000
1.300000 0.800000 0.000000
1.400000 0.800000 0.000000
1.500000 0.800000 0.000000
1.600000 0.800000 0.000000
1.700000 0.800000 0.000000
1.800000 0.800000 0.000000
1.900000 0.800000 0.000000
2.000000 0.800000 0.000000
2.100000 0.800000 0.000000
2.200000 0.800000 0.000000
2.300000 0.800000 0.000000
2.400000 0.800000 0.000000
2.500000 0.800000 0.000000
2.600000 0.800000 0.000000
2.700000 0.800000 0.000000
2.800000 0.800000 0.000000
2.900000 0.800000 0.000000
3.000000 0.800000 0.000000
3.100000 0.800000 0.000000
3.200000 0.800000 0.000000
3.300000 0.800000 0.000000
3.400000 0.800000 0.000000
3.500000 0.800000 0.000000
3.600000 0.800000 0.000000
[...]
CELL_DATA 16000
SCALARS pressure float 1
LOOKUP_TABLE default
26.3917
26.209
25.871
25.4199
24.8892
24.3029
23.6783
23.0272
22.3579
21.6758
20.9847
20.287
19.584
18.8764
18.1649
17.4496
16.7312
16.0104
15.2881
14.5654
13.8432
13.1224
12.4035
11.6866
10.9718
10.2589
9.54753
8.8375
8.1285
7.42028
6.71265
6.00543
5.29851
4.59179
3.8852
3.17871
2.47226
1.76586
1.05949
0.353143
26.4503
26.2403
25.8877
25.4288
24.8937
24.3052
23.6793
23.0276
22.3579
21.6756
20.9845
20.2868
19.5839
18.8764
18.1649
17.4497
16.7313
16.0104
15.2881
14.5653
13.8431
13.1223
12.4034
11.6865
10.9718
10.2588
9.54751
8.8375
8.12851
7.4203
6.71266
6.00545
5.29852
4.5918
3.88521
3.17871
2.47227
1.76587
1.05949
0.353139
26.5703
26.3209
25.9414
25.4645
24.9175
24.3209
23.6898
23.0345
22.3625
21.6788
20.9868
20.2886
19.5855
18.878
18.1664
17.451
16.7323
16.011
15.2882
14.5649
13.8424
13.1214
12.4024
11.6856
10.9709
10.2582
9.54698
8.83709
8.12821
7.42008
6.71252
6.00535
5.29846
4.59176
3.88519
3.1787
2.47226
1.76586
1.05948
0.353132
26.7263
26.4324
26.0196
25.5187
24.9548
24.3464
23.7071
23.0463
22.3706
21.6845
20.9911
20.2921
19.5886
18.8809
18.1692
17.4535
16.7342
16.0121
15.2883
14.5643
13.8411
13.1197
12.4006
11.6839
10.9694
10.2569
9.54598
8.83632
8.12764
7.41967
6.71223
6.00515
5.29833
4.59168
3.88514
3.17867
2.47224
1.76585
1.05947
0.353125
26.8959
26.5585
26.1108
25.5835
25.0003
24.3781
23.729
23.0614
22.3811
21.692
20.9968
20.2969
19.593
18.8851
18.1732
17.457
16.7368
16.0136
15.2885
14.5632
13.8392
13.1173
12.3981
11.6815
10.9673
10.2551
9.54458
8.83525
8.12685
7.4191
6.71183
6.00488
5.29814
4.59155
3.88506
3.17862
2.47221
1.76583
1.05946
0.35312
27.0612
26.685
26.2044
25.6513
25.0486
24.4122
23.7528
23.078
22.3927
21.7004
21.0032
20.3024
19.5981
18.8901
18.178
17.4612
16.7401
16.0153
15.2886
14.5619
13.8368
13.1143
12.395
11.6786
10.9648
10.253
9.54292
8.83399
8.12591
7.41843
6.71135
6.00455
5.29793
4.59141
3.88497
3.17856
2.47218
1.76581
1.05945
0.353117
27.2086
26.8
26.291
25.7148
25.0945
24.4448
23.7758
23.0941
22.4041
21.7087
21.0097
20.308
19.6034
18.8954
18.1831
17.4658
16.7435
16.0172
15.2887
14.5604
13.8341
13.1111
12.3916
11.6755
10.9621
10.2508
9.54118
8.83267
8.12494
7.41773
6.71087
6.00422
5.2977
4.59127
3.88487
3.17851
2.47215
1.76579
1.05944
0.353115
27.3275
26.8942
26.3628
25.7682
25.1333
24.4727
23.7956
23.108
22.414
21.716
21.0155
20.313
19.6083
18.9003
18.1878
17.47
16.7467
16.0189
15.2887
14.5589
13.8316
13.108
12.3885
11.6726
10.9596
10.2488
9.53961
8.83148
8.12407
7.41711
6.71043
6.00392
5.2975
4.59113
3.88479
3.17845
2.47212
1.76578
1.05944
0.353114
27.4107
26.9608
26.414
25.8065
25.1614
24.4929
23.81
23.1183
22.4213
21.7214
21.0198
20.3169
19.6121
18.9041
18.1916
17.4733
16.7492
16.0202
15.2887
14.5577
13.8296
13.1057
12.3861
11.6704
10.9577
10.2473
9.53842
8.83059
8.12341
7.41664
6.7101
6.0037
5.29735
4.59104
3.88473
3.17842
2.47209
1.76576
1.05943
0.353114
27.4536
26.9953
26.4406
25.8265
25.1762
24.5037
23.8177
23.1238
22.4253
21.7244
21.0223
20.3191
19.6143
18.9063
18.1937
17.4753
16.7506
16.021
15.2888
14.5571
13.8286
13.1045
12.3849
11.6693
10.9567
10.2465
9.53781
8.83013
8.12308
7.4164
6.70994
6.00358
5.29728
4.59099
3.8847
3.1784
2.47208
1.76576
1.05943
0.353113
27.4537
26.9954
26.4408
25.8267
25.1763
24.5039
23.818
23.124
22.4256
21.7247
21.0226
20.3194
19.6146
18.9067
18.1941
17.4756
16.7509
16.0213
15.289
14.5573
13.8288
13.1046
12.385
11.6694
10.9568
10.2466
9.53787
8.83017
8.12311
7.41643
6.70996
6.0036
5.29729
4.591
3.8847
3.1784
2.47208
1.76576
1.05943
0.353112
27.4112
26.9613
26.4144
25.807
25.1619
24.4935
23.8106
23.119
22.4221
21.7222
21.0207
20.3178
19.6131
18.9051
18.1925
17.4742
16.75
16.021
15.2894
14.5583
13.8301
13.1062
12.3865
11.6707
10.958
10.2475
9.5386
8.83073
8.12352
7.41672
6.71017
6.00374
5.29739
4.59106
3.88474
3.17843
2.4721
1.76576
1.05943
0.35311
27.3283
26.895
26.3635
25.7689
25.1341
24.4736
23.7966
23.1091
22.4152
21.7173
21.0169
20.3146
19.6099
18.9019
18.1894
17.4715
16.7481
16.0201
15.2899
14.5599
13.8325
13.1088
12.3892
11.6731
10.96
10.2492
9.53989
8.8317
8.12424
7.41724
6.71053
6.00399
5.29755
4.59117
3.88481
3.17847
2.47212
1.76578
1.05943
0.353109
27.2096
26.801
26.292
25.7159
25.0956
24.446
23.7771
23.0955
22.4057
21.7104
21.0116
20.31
19.6055
18.8975
18.1851
17.4677
16.7453
16.0189
15.2903
14.5617
13.8353
13.1121
12.3925
11.6762
10.9627
10.2513
9.54156
8.83297
8.12517
7.41791
6.711
6.00431
5.29777
4.59131
3.8849
3.17852
2.47215
1.76579
1.05944
0.353108
27.0624
26.6862
26.2056
25.6525
25.0499
24.4136
23.7544
23.0797
22.3946
21.7025
21.0055
20.3048
19.6006
18.8926
18.1804
17.4636
16.7423
16.0174
15.2905
14.5635
13.8382
13.1156
12.396
11.6794
10.9655
10.2536
9.54337
8.83434
8.12619
7.41864
6.71151
6.00467
5.29801
4.59147
3.885
3.17858
2.47219
1.76581
1.05945
0.353108
26.8972
26.5598
26.1121
25.5849
25.0017
24.3797
23.7307
23.0633
22.3831
21.6943
20.9992
20.2995
19.5957
18.8879
18.1759
17.4596
16.7394
16.0159
15.2906
14.5651
13.8408
13.1187
12.3993
11.6825
10.9681
10.2558
9.54509
8.83565
8.12715
7.41933
6.712
6.005
5.29823
4.59161
3.88509
3.17864
2.47222
1.76583
1.05945
0.35311
26.7277
26.4338
26.021
25.5202
24.9563
24.3481
23.7089
23.0483
22.3728
21.6869
20.9937
20.2949
19.5915
18.8839
18.1721
17.4563
16.7369
16.0146
15.2906
14.5663
13.8428
13.1212
12.4019
11.685
10.9703
10.2576
9.54652
8.83675
8.12796
7.41992
6.71241
6.00528
5.29842
4.59173
3.88517
3.17868
2.47225
1.76584
1.05946
0.353114
26.5718
26.3224
25.9429
25.466
24.919
24.3226
23.6916
23.0365
22.3647
21.6812
20.9894
20.2914
19.5884
18.8809
18.1693
17.4539
16.735
16.0136
15.2905
14.567
13.8442
13.1229
12.4037
11.6867
10.9718
10.2589
9.54753
8.83752
8.12853
7.42033
6.71269
6.00547
5.29854
4.59181
3.88522
3.17871
2.47226
1.76585
1.05947
0.353122
26.4517
26.2417
25.8891
25.4302
24.8953
24.3069
23.6811
23.0296
22.36
21.678
20.9871
20.2896
19.5867
18.8794
18.1678
17.4526
16.734
16.013
15.2904
14.5673
13.8449
13.1238
12.4047
11.6876
10.9726
10.2595
9.54805
8.83791
8.12882
7.42053
6.71283
6.00556
5.2986
4.59185
3.88524
3.17872
2.47227
1.76586
1.05948
0.35313
26.3931
26.2104
25.8724
25.4214
24.8907
24.3045
23.6801
23.0291
22.36
21.6781
20.9872
20.2897
19.5868
18.8793
18.1678
17.4525
16.7339
16.0129
15.2904
14.5674
13.845
13.1239
12.4047
11.6877
10.9727
10.2595
9.54805
8.8379
8.1288
7.42051
6.71281
6.00554
5.29858
4.59183
3.88522
3.17871
2.47226
1.76585
1.05947
0.353134
26.4503
26.2403
25.8877
25.4288
24.8937
24.3052
23.6793
23.0276
22.3579
21.6756
20.9845
20.2868
19.5839
18.8764
18.1649
17.4497
16.7313
16.0104
15.2881
14.5653
13.8431
13.1223
12.4034
11.6865
10.9718
10.2588
9.54751
8.8375
8.12851
7.4203
6.71266
6.00545
5.29852
4.5918
3.88521
3.17871
2.47227
1.76587
1.05949
0.353139
26.501
26.2512
25.8817
25.4171
24.8814
24.2942
23.6702
23.0202
22.3521
21.6711
20.9809
20.2839
19.5814
18.8743
18.1631
17.4482
16.7302
16.0097
15.2878
14.5653
13.8435
13.1229
12.4041
11.6873
10.9725
10.2595
9.54809
8.83798
8.1289
7.42061
6.7129
6.00563
5.29866
4.5919
3.88528
3.17876
2.47231
1.76589
1.05951
0.353145
26.6211
26.3223
25.9229
25.4406
24.8946
24.3013
23.6738
23.0219
22.3527
21.6711
20.9807
20.2837
19.5813
18.8743
18.1632
17.4484
16.7303
16.0097
15.2876
14.5651
13.8432
13.1225
12.4038
11.687
10.9723
10.2594
9.54803
8.83796
8.1289
7.42063
6.71293
6.00566
5.29869
4.59193
3.88531
3.17878
2.47232
1.7659
1.05951
0.353143
26.7829
26.4303
25.9946
25.4879
24.9255
24.3214
23.6868
23.0302
22.358
21.6747
20.9832
20.2856
19.583
18.876
18.1648
17.4498
16.7314
16.0103
15.2876
14.5646
13.8422
13.1214
12.4026
11.6859
10.9713
10.2586
9.54742
8.83751
8.12858
7.42041
6.71279
6.00557
5.29863
4.5919
3.88529
3.17878
2.47232
1.76591
1.05952
0.353142
26.9608
26.5558
26.0824
25.5487
24.9672
24.3497
23.7059
23.0431
22.3667
21.6807
20.9876
20.2892
19.5862
18.879
18.1677
17.4523
16.7333
16.0113
15.2877
14.5638
13.8408
13.1196
12.4007
11.6841
10.9698
10.2573
9.54639
8.83673
8.12801
7.42
6.7125
6.00538
5.29851
4.59182
3.88525
3.17875
2.47231
1.7659
1.05951
0.353142
27.1347
26.6829
26.1743
25.6141
25.0132
24.3817
23.728
23.0582
22.3772
21.6881
20.9932
20.2938
19.5903
18.883
18.1714
17.4556
16.7357
16.0126
15.2878
14.5627
13.8389
13.1173
12.3983
11.6819
10.9678
10.2556
9.54509
8.83573
8.12727
7.41947
6.71214
6.00513
5.29834
4.59171
3.88518
3.17871
2.47229
1.76589
1.05951
0.353144
27.2895
26.799
26.2599
25.6763
25.0577
24.4131
23.7499
23.0734
22.3878
21.6957
20.999
20.2986
19.5948
18.8873
18.1755
17.4592
16.7384
16.0141
15.2878
14.5614
13.8367
13.1147
12.3956
11.6794
10.9656
10.2539
9.5437
8.83467
8.12649
7.41891
6.71174
6.00486
5.29816
4.5916
3.88511
3.17867
2.47226
1.76588
1.05951
0.353146
27.4143
26.8942
26.3312
25.7287
25.0956
24.4401
23.769
23.0868
22.3972
21.7026
21.0043
20.3031
19.599
18.8913
18.1794
17.4625
16.7409
16.0154
15.2877
14.5602
13.8347
13.1123
12.3931
11.6771
10.9636
10.2523
9.54242
8.8337
8.12577
7.41839
6.71138
6.00461
5.298
4.59149
3.88504
3.17863
2.47224
1.76587
1.0595
0.35315
27.5015
26.9614
26.3821
25.7665
25.1231
24.4599
23.783
23.0968
22.4043
21.7077
21.0083
20.3066
19.6022
18.8945
18.1824
17.4652
16.7429
16.0165
15.2877
14.5593
13.8332
13.1104
12.3912
11.6753
10.9621
10.251
9.54145
8.83297
8.12523
7.41801
6.71111
6.00443
5.29788
4.59141
3.88499
3.1786
2.47222
1.76586
1.0595
0.353152
27.5463
26.9962
26.4087
25.7863
25.1377
24.4705
23.7905
23.1021
22.4082
21.7106
21.0106
20.3086
19.6041
18.8964
18.1842
17.4668
16.7441
16.0171
15.2878
14.5589
13.8324
13.1095
12.3903
11.6744
10.9614
10.2504
9.54095
8.83259
8.12496
7.41781
6.71097
6.00433
5.29782
4.59137
3.88497
3.17858
2.47222
1.76585
1.0595
0.353153
27.5465
26.9964
26.4088
25.7865
25.1378
24.4706
23.7907
23.1024
22.4084
21.7109
21.0109
20.3088
19.6044
18.8967
18.1845
17.4671
16.7444
16.0174
15.288
14.5591
13.8326
13.1096
12.3904
11.6745
10.9614
10.2505
9.54101
8.83264
8.12499
7.41784
6.71099
6.00435
5.29783
4.59138
3.88497
3.17859
2.47222
1.76586
1.0595
0.353152
27.502
26.9619
26.3826
25.767
25.1236
24.4605
23.7836
23.0974
22.405
21.7085
21.0091
20.3074
19.6031
18.8954
18.1833
17.4661
16.7437
16.0172
15.2884
14.5599
13.8337
13.1109
12.3916
11.6757
10.9624
10.2512
9.54162
8.8331
8.12534
7.41809
6.71117
6.00447
5.29791
4.59143
3.88501
3.17861
2.47223
1.76586
1.0595
0.35315
27.415
26.8949
26.332
25.7295
25.0964
24.441
23.7699
23.0879
22.3984
21.7038
21.0056
20.3045
19.6004
18.8928
18.1808
17.4639
16.7422
16.0166
15.2888
14.5612
13.8356
13.113
12.3938
11.6776
10.9641
10.2526
9.54269
8.83392
8.12594
7.41852
6.71148
6.00468
5.29805
4.59153
3.88507
3.17864
2.47225
1.76587
1.0595
0.353146
27.2905
26.8
26.2609
25.6773
25.0587
24.4142
23.7511
23.0748
22.3893
21.6973
21.0007
20.3005
19.5967
18.8892
18.1774
17.461
16.7401
16.0157
15.2892
14.5627
13.8379
13.1157
12.3964
11.6801
10.9662
10.2543
9.54406
8.83496
8.12672
7.41908
6.71187
6.00496
5.29823
4.59164
3.88514
3.17869
2.47227
1.76588
1.05951
0.353141
27.1359
26.6841
26.1755
25.6153
25.0145
24.3831
23.7294
23.0598
22.3789
21.69
20.9953
20.296
19.5926
18.8853
18.1737
17.4578
16.7378
16.0146
15.2895
14.5642
13.8402
13.1184
12.3992
11.6827
10.9685
10.2562
9.54553
8.83608
8.12755
7.41968
6.71229
6.00524
5.29843
4.59177
3.88522
3.17874
2.4723
1.76589
1.05951
0.353137
26.9622
26.5571
26.0838
25.5501
24.9686
24.3512
23.7075
23.0449
22.3687
21.6828
20.99
20.2916
19.5887
18.8816
18.1702
17.4548
16.7356
16.0135
15.2897
14.5655
13.8423
13.1209
12.4018
11.6851
10.9705
10.2579
9.54689
8.83712
8.12831
7.42023
6.71268
6.0055
5.2986
4.59188
3.88528
3.17877
2.47232
1.7659
1.05951
0.353134
26.7844
26.4317
25.996
25.4893
24.927
24.323
23.6885
23.0321
22.3601
21.677
20.9857
20.2882
19.5857
18.8787
18.1676
17.4525
16.7339
16.0127
15.2898
14.5665
13.8439
13.1228
12.4038
11.6869
10.9722
10.2593
9.54795
8.83792
8.1289
7.42065
6.71297
6.0057
5.29872
4.59195
3.88533
3.1788
2.47233
1.76591
1.05951
0.353134
26.6226
26.3238
25.9244
25.4421
24.8961
24.3029
23.6755
23.0238
22.3548
21.6735
20.9832
20.2863
19.584
18.8771
18.166
17.4511
16.7329
16.0122
15.2898
14.5671
13.8449
13.124
12.405
11.6881
10.9731
10.2601
9.54857
8.83838
8.12923
7.42087
6.71311
6.00579
5.29877
4.59198
3.88534
3.1788
2.47233
1.7659
1.05951
0.353135
26.5024
26.2527
25.8831
25.4186
24.8829
24.2958
23.6719
23.0222
22.3542
21.6734
20.9834
20.2866
19.5842
18.8772
18.166
17.451
16.7328
16.0122
15.29
14.5673
13.8452
13.1244
12.4053
11.6883
10.9733
10.2602
9.54862
8.83839
8.12921
7.42084
6.71307
6.00574
5.29873
4.59194
3.88531
3.17877
2.4723
1.76588
1.0595
0.353135
26.4517
26.2417
25.8891
25.4302
24.8952
24.3068
23.681
23.0294
22.3599
21.6779
20.987
20.2894
19.5866
18.8792
18.1677
17.4524
16.7339
16.0128
15.2903
14.5672
13.8448
13.1238
12.4046
11.6875
10.9726
10.2595
9.54802
8.83788
8.1288
7.42051
6.71281
6.00555
5.29859
4.59184
3.88523
3.17871
2.47226
1.76585
1.05947
0.353129
26.5703
26.3209
25.9414
25.4645
24.9175
24.3209
23.6898
23.0345
22.3625
21.6788
20.9868
20.2886
19.5855
18.878
18.1664
17.451
16.7323
16.011
15.2882
14.5649
13.8424
13.1214
12.4024
11.6856
10.9709
10.2582
9.54698
8.83709
8.12821
7.42008
6.71252
6.00535
5.29846
4.59176
3.88519
3.1787
2.47226
1.76586
1.05948
0.353132
26.6211
26.3223
25.9229
25.4406
24.8946
24.3013
23.6738
23.0219
22.3527
21.6711
20.9807
20.2837
19.5813
18.8743
18.1632
17.4484
16.7303
16.0097
15.2876
14.5651
13.8432
13.1225
12.4038
11.687
10.9723
10.2594
9.54803
8.83796
8.1289
7.42063
6.71293
6.00566
5.29869
4.59193
3.88531
3.17878
2.47232
1.7659
1.05951
0.353143
26.7417
26.3885
25.9564
25.4559
24.9
24.3018
23.6721
23.0193
22.3499
21.6686
20.9785
20.2817
19.5797
18.873
18.1622
17.4476
16.7297
16.0093
15.2873
14.5649
13.8431
13.1226
12.404
11.6873
10.9726
10.2597
9.54835
8.83825
8.12916
7.42085
6.71311
6.00581
5.2988
4.59201
3.88537
3.17883
2.47236
1.76593
1.05953
0.353145
26.9072
26.4951
26.0239
25.498
24.926
24.3175
23.6813
23.0246
22.3528
21.6701
20.9793
20.2823
19.5803
18.8737
18.163
17.4484
16.7303
16.0095
15.2871
14.5644
13.8423
13.1217
12.4031
11.6866
10.972
10.2593
9.54806
8.83806
8.12905
7.42079
6.71309
6.00581
5.29882
4.59203
3.8854
3.17885
2.47238
1.76594
1.05954
0.353147
27.0911
26.6215
26.11
25.5559
24.9645
24.3429
23.6979
23.0353
22.3597
21.6747
20.9825
20.2849
19.5826
18.8761
18.1653
17.4504
16.7318
16.0103
15.287
14.5634
13.8408
13.1201
12.4014
11.6851
10.9708
10.2583
9.54729
8.8375
8.12866
7.42053
6.71292
6.0057
5.29875
4.592
3.88538
3.17885
2.47238
1.76595
1.05954
0.353151
27.2718
26.7508
26.2014
25.6198
25.0086
24.373
23.7182
23.0489
22.3689
21.6809
20.9871
20.2887
19.5861
18.8796
18.1687
17.4535
16.7341
16.0114
15.2868
14.5621
13.8388
13.1177
12.3992
11.683
10.969
10.2569
9.5462
8.8367
8.12808
7.42012
6.71264
6.00552
5.29864
4.59193
3.88534
3.17883
2.47237
1.76595
1.05955
0.353157
27.4331
26.8693
26.2873
25.6812
25.0519
24.4031
23.7389
23.0631
22.3786
21.6878
20.9922
20.293
19.5902
18.8836
18.1727
17.457
16.7367
16.0127
15.2865
14.5606
13.8365
13.1151
12.3966
11.6807
10.9671
10.2553
9.54499
8.83579
8.12742
7.41966
6.71233
6.00531
5.2985
4.59184
3.88529
3.1788
2.47236
1.76594
1.05955
0.353164
27.5632
26.9666
26.3591
25.7333
25.0891
24.4294
23.7572
23.0757
22.3873
21.694
20.997
20.297
19.5941
18.8875
18.1765
17.4604
16.7393
16.0139
15.2862
14.559
13.8342
13.1126
12.3941
11.6785
10.9652
10.2538
9.54386
8.83495
8.12681
7.41922
6.71203
6.00511
5.29837
4.59176
3.88524
3.17877
2.47234
1.76594
1.05955
0.35317
27.6542
27.0355
26.4105
25.771
25.1163
24.4487
23.7708
23.0852
22.394
21.6988
21.0007
20.3002
19.5972
18.8907
18.1796
17.4632
16.7413
16.0149
15.2859
14.5578
13.8324
13.1106
12.3922
11.6768
10.9638
10.2527
9.543
8.83431
8.12634
7.41889
6.7118
6.00495
5.29827
4.5917
3.8852
3.17875
2.47233
1.76593
1.05955
0.353176
27.701
27.0712
26.4373
25.7907
25.1307
24.459
23.7781
23.0904
22.3976
21.7014
21.0028
20.302
19.599
18.8925
18.1814
17.4648
16.7425
16.0155
15.2859
14.5572
13.8315
13.1096
12.3912
11.6759
10.9631
10.2521
9.54256
8.83398
8.1261
7.41873
6.71169
6.00488
5.29822
4.59167
3.88518
3.17874
2.47232
1.76593
1.05955
0.353178
27.7011
27.0713
26.4374
25.7909
25.1309
24.4592
23.7783
23.0906
22.3979
21.7017
21.003
20.3023
19.5993
18.8928
18.1817
17.4651
16.7428
16.0157
15.2861
14.5573
13.8317
13.1097
12.3913
11.676
10.9632
10.2522
9.54261
8.83402
8.12614
7.41875
6.71171
6.00489
5.29823
4.59168
3.88519
3.17874
2.47232
1.76593
1.05955
0.353177
27.6547
27.036
26.4109
25.7714
25.1168
24.4492
23.7714
23.0858
22.3947
21.6995
21.0015
20.301
19.598
18.8915
18.1804
17.464
16.7421
16.0156
15.2866
14.5583
13.8329
13.111
12.3926
11.6771
10.9641
10.2529
9.54317
8.83444
8.12645
7.41897
6.71186
6.005
5.2983
4.59172
3.88522
3.17876
2.47233
1.76593
1.05955
0.353173
27.564
26.9674
26.3599
25.7341
25.0899
24.4302
23.7581
23.0767
22.3884
21.6952
20.9983
20.2984
19.5955
18.8889
18.1779
17.4618
16.7405
16.0151
15.2872
14.5599
13.835
13.1133
12.3947
11.679
10.9656
10.2542
9.54413
8.83516
8.12698
7.41935
6.71213
6.00518
5.29842
4.5918
3.88526
3.17879
2.47235
1.76594
1.05955
0.353166
27.4341
26.8703
26.2883
25.6822
25.0529
24.4042
23.7401
23.0644
22.38
21.6893
20.994
20.2948
19.5921
18.8855
18.1745
17.4588
16.7384
16.0142
15.2879
14.5618
13.8376
13.116
12.3974
11.6814
10.9676
10.2558
9.54535
8.83608
8.12765
7.41983
6.71246
6.0054
5.29857
4.59189
3.88532
3.17882
2.47236
1.76594
1.05955
0.353158
27.2731
26.752
26.2026
25.621
25.0098
24.3743
23.7196
23.0505
22.3706
21.6828
20.9892
20.2908
19.5884
18.8818
18.1709
17.4556
16.7361
16.0133
15.2885
14.5636
13.8401
13.1189
12.4001
11.6838
10.9697
10.2574
9.54664
8.83704
8.12835
7.42032
6.7128
6.00563
5.29872
4.59199
3.88538
3.17885
2.47238
1.76595
1.05954
0.35315
27.0925
26.6229
26.1113
25.5573
24.9659
24.3444
23.6995
23.0371
22.3617
21.6768
20.9848
20.2873
19.5851
18.8786
18.1678
17.4529
16.7342
16.0124
15.2889
14.5652
13.8423
13.1213
12.4025
11.686
10.9715
10.2589
9.54778
8.83789
8.12896
7.42075
6.71309
6.00582
5.29884
4.59206
3.88542
3.17887
2.47239
1.76595
1.05954
0.353143
26.9087
26.4965
26.0253
25.4994
24.9274
24.3191
23.683
23.0265
22.3549
21.6724
20.9817
20.2849
19.5829
18.8764
18.1657
17.451
16.7328
16.0118
15.2892
14.5662
13.8439
13.1231
12.4043
11.6876
10.9729
10.2599
9.54858
8.83847
8.12937
7.42103
6.71327
6.00593
5.2989
4.59209
3.88543
3.17887
2.47238
1.76594
1.05953
0.353139
26.7432
26.3899
25.9579
25.4573
24.9016
24.3035
23.6738
23.0212
22.352
21.6709
20.9809
20.2844
19.5824
18.8758
18.165
17.4503
16.7323
16.0117
15.2895
14.5669
13.8448
13.1241
12.4052
11.6883
10.9734
10.2604
9.54888
8.83867
8.12948
7.42108
6.71329
6.00593
5.29888
4.59207
3.8854
3.17885
2.47236
1.76592
1.05952
0.353136
26.6226
26.3238
25.9244
25.4421
24.896
24.3028
23.6755
23.0238
22.3547
21.6734
20.9832
20.2863
19.5841
18.8772
18.1661
17.4512
16.7329
16.0122
15.2899
14.5671
13.8449
13.124
12.405
11.6881
10.9731
10.26
9.54854
8.83835
8.1292
7.42085
6.71309
6.00577
5.29876
4.59197
3.88533
3.17879
2.47232
1.76589
1.0595
0.353133
26.5718
26.3223
25.9428
25.4659
24.9189
24.3224
23.6914
23.0363
22.3644
21.681
20.9892
20.2913
19.5882
18.8808
18.1692
17.4538
16.7349
16.0134
15.2904
14.5669
13.8441
13.1228
12.4036
11.6866
10.9717
10.2588
9.54746
8.83745
8.12848
7.42028
6.71265
6.00544
5.29851
4.59179
3.88519
3.17869
2.47225
1.76584
1.05946
0.353118
26.7263
26.4324
26.0196
25.5187
24.9547
24.3464
23.7071
23.0463
22.3706
21.6845
20.9911
20.2921
19.5886
18.8809
18.1692
17.4535
16.7342
16.0121
15.2883
14.5643
13.8411
13.1197
12.4006
11.6839
10.9694
10.2569
9.54598
8.83632
8.12764
7.41967
6.71223
6.00515
5.29833
4.59168
3.88514
3.17867
2.47224
1.76585
1.05947
0.353125
26.7829
26.4303
25.9946
25.4879
24.9255
24.3214
23.6868
23.0302
22.358
21.6747
20.9832
20.2856
19.583
18.876
18.1648
17.4498
16.7314
16.0103
15.2876
14.5646
13.8422
13.1214
12.4026
11.6859
10.9713
10.2586
9.54742
8.83751
8.12858
7.42041
6.71279
6.00557
5.29863
4.5919
3.88529
3.17878
2.47232
1.76591
1.05952
0.353142
26.9072
26.4951
26.0239
25.498
24.926
24.3175
23.6813
23.0246
22.3528
21.6701
20.9793
20.2823
19.5803
18.8737
18.163
17.4484
16.7303
16.0095
15.2871
14.5644
13.8423
13.1217
12.4031
11.6866
10.972
10.2593
9.54806
8.83806
8.12905
7.42079
6.71309
6.00581
5.29882
4.59203
3.8854
3.17885
2.47238
1.76594
1.05954
0.353147