# vtk DataFile Version 2.0
I need something to put here
ASCII

DATASET STRUCTURED_GRID
DIMENSIONS 41 21 21
POINTS 18081 float
0.000000 0.000000 0.000000
0.100000 0.000000 0.000000
0.200000 0.000000 0.000000
0.300000 0.000000 0.000000
0.400000 0.000000 0.000000
0.500000 0.000000 0.000000
0.600000 0.000000 0.000000
0.700000 0.000000 0.000000
0.800000 0.000000 0.000000
0.900000 0.000000 0.000000
1.000000 0.000000 0.000000
1.100000 0.000000 0.000000
1.200000 0.000000 0.000000
1.300000 0.000000 0.000000
1.400000 0.000000 0.000000
1.500000 0.000000 0.000000
1.600000 0.000000 0.000000
1.700000 0.000000 0.000000
1.800000 0.000000 0.000000
1.900000 0.000000 0.000000
2.000000 0.000000 0.000000
2.100000 0.000000 0.000000
2.200000 0.000000 0.000000
2.300000 0.000000 0.000000
2.400000 0.000000 0.000000
2.500000 0.000000 0.000000
2.600000 0.000000 0.000000
2.700000 0.000000 0.000000
2.800000 0.000000 0.000000
2.900000 0.000000 0.000000
3.000000 0.000000 0.000000
3.100000 0.000000 0.000000
3.200000 0.000000 0.000000
3.300000 0.000000 0.000000
3.400000 0.000000 0.000000
3.500000 0.000000 0.000000
3.600000 0.000000 0.000000
3.700000 0.000000 0.000000
3.800000 0.000000 0.000000
3.900000 0.000000 0.000000
4.000000 0.000000 0.000000
0.000000 0.100000 0.000000
0.100000 0.100000 0.000000
0.200000 0.100000 0.000000
0.300000 0.100000 0.000000
0.400000 0.100000 0.000000
0.500000 0.100000 0.000000
0.600000 0.100000 0.000000
0.700000 0.100000 0.000000
0.800000 0.100000 0.000000
0.900000 0.100000 0.000000
1.000000 0.100000 0.000000
1.100000 0.100000 0.000000
1.200000 0.100000 0.000000
1.300000 0.100000 0.000000
1.400000 0.100000 0.000000
1.500000 0.100000 0.000000
1.600000 0.100000 0.000000
1.700000 0.100000 0.000000
1.800000 0.100000 0.000000
1.900000 0.100000 0.000000
2.000000 0.100000 0.000000
2.100000 0.100000 0.000000
2.200000 0.100000 0.000000
2.300000 0.100000 0.000000
2.400000 0.100000 0.000000
2.500000 0.100000 0.000000
2.600000 0.100000 0.000000
2.700000 0.100000 0.000000
2.800000 0.100000 0.000000
2.900000 0.100000 0.000000
3.000000 0.100000 0.000000
3.100000 0.100000 0.000000
3.200000 0.100000 0.000000
3.300000 0.100000 0.000000
3.400000 0.100000 0.000000
3.500000 0.100000 0.000000
3.600000 0.100000 0.000000
3.700000 0.100000 0.000000
3.800000 0.100000 0.000000
3.900000 0.100000 0.000000
4.000000 0.100000 0.000000
0.000000 0.200000 0.000000
0.100000 0.200000 0.000000
0.200000 0.200000 0.000000
0.300000 0.200000 0.000000
0.400000 0.200000 0.000000
0.500000 0.200000 0.000000
0.600000 0.200000 0.000000
0.700000 0.200000 0.000000
0.800000 0.200000 0.000000
0.900000 0.200000 0.000000
1.000000 0.200000 0.000000
1.100000 0.200000 0.000000
1.200000 0.200000 0.000000
1.300000 0.200000 0.000000
1.400000 0.200000 0.000000
1.500000 0.200000 0.000000
1.600000 0.200000 0.000000
1.700000 0.200000 0.000000
1.800000 0.200000 0.000000
1.900000 0.200000 0.000000
2.000000 0.200000 0.000000
2.100000 0.200000 0.000000
2.200000 0.200000 0.000000
2.300000 0.200000 0.000000
2.400000 0.200000 0.000000
2.500000 0.200000 0.000000
2.600000 0.200000 0.000000
2.700000 0.200000 0.000000
2.800000 0.200000 0.000000
2.900000 0.200000 0.000000
3.000000 0.200000 0.000000
3.100000 0.200000 0.000000
3.200000 0.200000 0.000000
3.300000 0.200000 0.000000
3.400000 0.200000 0.000000
3.500000 0.200000 0.000000
3.600000 0.200000 0.000000
3.700000 0.200000 0.000000
3.800000 0.200000 0.000000
3.900000 0.200000 0.000000
4.000000 0.200000 0.000000
0.000000 0.300000 0.000000
0.100000 0.300000 0.000000
0.200000 0.300000 0.000000
0.300000 0.300000 0.000000
0.400000 0.300000 0.000000
0.500000 0.300000 0.000000
0.600000 0.300000 0.000000
0.700000 0.300000 0.000000
0.800000 0.300000 0.000000
0.900000 0.300000 0.000000
1.000000 0.300000 0.000000
1.100000 0.300000 0.000000
1.200000 0.300000 0.000000
1.300000 0.300000 0.000000
1.400000 0.300000 0.000000
1.500000 0.300000 0.000000
1.600000 0.300000 0.000000
1.700000 0.300000 0.000000
1.800000 0.300000 0.000000
1.900000 0.300000 0.000000
2.000000 0.300000 0.000000
2.100000 0.300000 0.000000
2.200000 0.300000 0.000000
2.300000 0.300000 0.000000
2.400000 0.300000 0.000000
2.500000 0.300000 0.000000
2.600000 0.300000 0.000000
2.700000 0.300000 0.000000
2.800000 0.300000 0.000000
2.900000 0.300000 0.000000
3.000000 0.300000 0.000000
3.100000 0.300000 0.000000
3.200000 0.300000 0.000000
3.300000 0.300000 0.000000
3.400000 0.300000 0.000000
3.500000 0.300000 0.000000
3.600000 0.300000 0.000000
3.700000 0.300000 0.000000
3.800000 0.300000 0.000000
3.900000 0.300000 0.000000
4.000000 0.300000 0.000000
0.000000 0.400000 0.000000
0.100000 0.400000 0.000000
0.200000 0.400000 0.000000
0.300000 0.400000 0.000000
0.400000 0.400000 0.000000
0.500000 0.400000 0.000000
0.600000 0.400000 0.000000
0.700000 0.400000 0.000000
0.800000 0.400000 0.000000
0.900000 0.400000 0.000000
1.000000 0.400000 0.000000
1.100000 0.400000 0.000000
1.200000 0.400000 0.000000
1.300000 0.400000 0.000000
1.400000 0.400000 0.000000
1.500000 0.400000 0.000000
1.600000 0.400000 0.000000
1.700000 0.400000 0.000000
1.800000 0.400000 0.000000
1.900000 0.400000 0.000000
2.000000 0.400000 0.000000
2.100000 0.400000 0.000000
2.200000 0.400000 0.000000
2.300000 0.400000 0.000000
2.400000 0.400000 0.000000
2.500000 0.400000 0.000000
2.600000 0.400000 0.000000
2.700000 0.400000 0.000000
2.800000 0.400000 0.000000
2.900000 0.400000 0.000000
3.000000 0.400000 0.000000
3.100000 0.400000 0.000000
3.200000 0.400000 0.000000
3.300000 0.400000 0.000000
3.400000 0.400000 0.000000
3.500000 0.400000 0.000000
3.600000 0.400000 0.000000
3.700000 0.400000 0.000000
3.800000 0.400000 0.000000
3.900000 0.400000 0.000000
4.000000 0.400000 0.000000
0.000000 0.500000 0.000000
0.100000 0.500000 0.000000
0.200000 0.500000 0.000000
0.300000 0.500000 0.000000
0.400000 0.500000 0.000000
0.500000 0.500000 0.000000
0.600000 0.500000 0.000000
0.700000 0.500000 0.000000
0.800000 0.500000 0.000000
0.900000 0.500000 0.000000
1.000000 0.500000 0.000000
1.100000 0.500000 0.000000
1.200000 0.500000 0.000000
1.300000 0.500000 0.000000
1.400000 0.500000 0.000000
1.500000 0.500000 0.000000
1.600000 0.500000 0.000000
1.700000 0.500000 0.000000
1.800000 0.500000 0.000000
1.900000 0.500000 0.000000
2.000000 0.500000 0.000000
2.100000 0.500000 0.000000
2.200000 0.500000 0.000000
2.300000 0.500000 0.000000
2.400000 0.500000 0.000000
2.500000 0.500000 0.000000
2.600000 0.500000 0.000000
2.700000 0.500000 0.000000
2.800000 0.500000 0.000000
2.900000 0.500000 0.000000
3.000000 0.500000 0.000000
3.100000 0.500000 0.000000
3.200000 0.500000 0.000000
3.300000 0.500000 0.000000
3.400000 0.500000 0.000000
3.500000 0.500000 0.000000
3.600000 0.500000 0.000000
3.700000 0.500000 0.000000
3.800000 0.500000 0.000000
3.900000 0.500000 0.000000
4.000000 0.500000 0.000000
0.000000 0.600000 0.000000
0.100000 0.600000 0.000000
0.200000 0.600000 0.000000
0.300000 0.600000 0.000000
0.400000 0.600000 0.000000
0.500000 0.600000 0.000000
0.600000 0.600000 0.000000
0.700000 0.600000 0.000000
0.800000 0.600000 0.000000
0.900000 0.600000 0.000000
1.000000 0.600000 0.000000
1.100000 0.600000 0.000000
1.200000 0.600000 0.000000
1.300000 0.600000 0.000000
1.400000 0.600000 0.000000
1.500000 0.600000 0.000000
1.600000 0.600000 0.000000
1.700000 0.600000 0.000000
1.800000 0.600000 0.000000
1.900000 0.600000 0.000000
2.000000 0.600000 0.000000
2.100000 0.600000 0.000000
2.200000 0.600000 0.000000
2.300000 0.600000 0.000000
2.400000 0.600000 0.000000
2.500000 0.600000 0.000000
2.600000 0.600000 0.000000
2.700000 0.600000 0.000000
2.800000 0.600000 0.000000
2.900000 0.600000 0.000000
3.000000 0.600000 0.000000
3.100000 0.600000 0.000000
3.200000 0.600000 0.000000
3.300000 0.600000 0.000000
3.400000 0.600000 0.000000
3.500000 0.600000 0.000000
3.600000 0.600000 0.000000
3.700000 0.600000 0.000000
3.800000 0.600000 0.000000
3.900000 0.600000 0.000000
4.000000 0.600000 0.000000
0.000000 0.700000 0.000000
0.100000 0.700000 0.000000
0.200000 0.700000 0.000000
0.300000 0.700000 0.000000
0.400000 0.700000 0.000000
0.500000 0.700000 0.000000
0.600000 0.700000 0.000000
0.700000 0.700000 0.000000
0.800000 0.700000 0.000000
0.900000 0.700000 0.000000
1.000000 0.700000 0.000000
1.100000 0.700000 0.000000
1.200000 0.700000 0.000000
1.300000 0.700000 0.000000
1.400000 0.700000 0.000000
1.500000 0.700000 0.000000
1.600000 0.700000 0.000000
1.700000 0.700000 0.000000
1.800000 0.700000 0.000000
1.900000 0.700000 0.000000
2.000000 0.700000 0.000000
2.100000 0.700000 0.000000
2.200000 0.700000 0.000000
2.300000 0.700000 0.000000
2.400000 0.700000 0.000000
2.500000 0.700000 0.000000
2.600000 0.700000 0.000000
2.700000 0.700000 0.000000
2.800000 0.700000 0.000000
2.900000 0.700000 0.000000
3.000000 0.700000 0.000000
3.100000 0.700000 0.000000
3.200000 0.700000 0.000000
3.300000 0.700000 0.000000
3.400000 0.700000 0.000000
3.500000 0.700000 0.000000
3.600000 0.700000 0.000000
3.700000 0.700000 0.000000
3.800000 0.700000 0.000000
3.900000 0.700000 0.000000
4.000000 0.700000 0.000000
0.000000 0.800000 0.000000
0.100000 0.800000 0.000000
0.200000 0.800000 0.000000
0.300000 0.800000 0.000000
0.400000 0.800000 0.000000
0.500000 0.800000 0.000000
0.600000 0.800000 0.000000
0.700000 0.800000 0.000000
0.800000 0.800000 0.000000
0.900000 0.800000 0.000000
1.000000 0.800000 0.000000
1.100000 0.800000 0.000000
1.200000 0.800000 0.000000
1.300000 0.800000 0.000000
1.400000 0.800000 0.000000
1.500000 0.800000 0.000000
1.600000 0.800000 0.000000
1.700000 0.800000 0.000000
1.800000 0.800000 0.000000
1.900000 0.800000 0.000000
2.000000 0.800000 0.000000
2.100000 0.800000 0.000000
2.200000 0.800000 0.000000
2.300000 0.800000 0.000000
2.400000 0.800000 0.000000
2.500000 0.800000 0.000000
2.600000 0.800000 0.000000
2.700000 0.800000 0.000000
2.800000 0.800000 0.000000
2.900000 0.800000 0.000000
3.000000 0.800000 0.000000
3.100000 0.800000 0.000000
3.200000 0.800000 0.000000
3.300000 0.800000 0.000000
3.400000 0.800000 0.000000
3.500000 0.800000 0.000000
3.600000 0.800000 0.000000
[...]
CELL_DATA 16000
SCALARS pressure float 1
LOOKUP_TABLE default
26.2139
26.0312
25.6932
25.242
24.7111
24.1247
23.4999
22.8487
22.1793
21.4975
20.8074
20.1116
19.412
18.7099
18.0062
17.3014
16.596
15.8903
15.1844
14.4785
13.7725
13.0664
12.3604
11.6543
10.9481
10.2419
9.5357
8.82943
8.12314
7.41682
6.71049
6.00414
5.29778
4.59142
3.88505
3.17869
2.47231
1.76594
1.05957
0.35319
26.2725
26.0625
25.7098
25.2508
24.7157
24.127
23.5009
22.849
22.1793
21.4974
20.8072
20.1114
19.4118
18.7098
18.0061
17.3013
16.5959
15.8902
15.1844
14.4784
13.7724
13.0664
12.3604
11.6543
10.9481
10.2419
9.5357
8.82943
8.12314
7.41682
6.71048
6.00414
5.29778
4.59142
3.88505
3.17868
2.47231
1.76594
1.05957
0.35319
26.3926
26.1431
25.7636
25.2866
24.7394
24.1427
23.5114
22.8559
22.1838
21.5003
20.8091
20.1126
19.4126
18.7102
18.0063
17.3014
16.596
15.8902
15.1844
14.4784
13.7724
13.0664
12.3604
11.6543
10.9481
10.2419
9.53571
8.82944
8.12314
7.41682
6.71049
6.00414
5.29778
4.59142
3.88506
3.17869
2.47231
1.76594
1.05957
0.353191
26.5485
26.2546
25.8418
25.3408
24.7768
24.1683
23.5287
22.8676
22.1917
21.5056
20.8126
20.1149
19.4141
18.7112
18.0069
17.3018
16.5961
15.8903
15.1844
14.4784
13.7724
13.0664
12.3604
11.6543
10.9482
10.242
9.53574
8.82946
8.12316
7.41684
6.7105
6.00415
5.29779
4.59142
3.88506
3.17869
2.47231
1.76594
1.05957
0.353191
26.7182
26.3808
25.9331
25.4057
24.8224
24.2
23.5506
22.8826
22.2019
21.5124
20.8172
20.1179
19.4161
18.7125
18.0077
17.3022
16.5963
15.8904
15.1844
14.4784
13.7725
13.0665
12.3605
11.6544
10.9482
10.242
9.53578
8.82949
8.12318
7.41685
6.71051
6.00416
5.29779
4.59143
3.88506
3.17869
2.47232
1.76594
1.05957
0.353192
26.8836
26.5073
26.0267
25.4735
24.8707
24.2341
23.5744
22.899
22.2131
21.52
20.8223
20.1214
19.4184
18.714
18.0086
17.3027
16.5966
15.8904
15.1844
14.4784
13.7725
13.0665
12.3605
11.6544
10.9483
10.2421
9.53582
8.82953
8.12321
7.41687
6.71052
6.00417
5.2978
4.59143
3.88506
3.17869
2.47232
1.76594
1.05957
0.353193
27.0309
26.6224
26.1133
25.5371
24.9166
24.2667
23.5973
22.915
22.224
21.5275
20.8273
20.1248
19.4207
18.7155
18.0095
17.3032
16.5968
15.8905
15.1844
14.4784
13.7725
13.0666
12.3606
11.6545
10.9484
10.2421
9.53587
8.82957
8.12324
7.4169
6.71054
6.00418
5.29781
4.59144
3.88507
3.17869
2.47232
1.76595
1.05957
0.353194
27.1498
26.7166
26.1851
25.5904
24.9555
24.2946
23.617
22.9287
22.2335
21.534
20.8317
20.1278
19.4227
18.7168
18.0103
17.3036
16.597
15.8905
15.1844
14.4784
13.7725
13.0666
12.3607
11.6546
10.9484
10.2422
9.53592
8.82961
8.12327
7.41692
6.71056
6.00419
5.29782
4.59144
3.88507
3.1787
2.47232
1.76595
1.05957
0.353195
27.233
26.7831
26.2362
25.6287
24.9835
24.3148
23.6313
22.9387
22.2405
21.5388
20.835
20.13
19.4242
18.7178
18.0109
17.304
16.5971
15.8905
15.1843
14.4784
13.7726
13.0667
12.3607
11.6547
10.9485
10.2423
9.53596
8.82964
8.12329
7.41694
6.71057
6.0042
5.29782
4.59145
3.88507
3.1787
2.47232
1.76595
1.05957
0.353195
27.2757
26.8174
26.2628
25.6487
24.9982
24.3254
23.6389
22.944
22.2442
21.5413
20.8368
20.1312
19.425
18.7183
18.0113
17.3042
16.5972
15.8906
15.1843
14.4784
13.7726
13.0667
12.3608
11.6547
10.9485
10.2423
9.53599
8.82966
8.12331
7.41695
6.71058
6.0042
5.29783
4.59145
3.88507
3.1787
2.47232
1.76595
1.05957
0.353196
27.2757
26.8174
26.2628
25.6487
24.9982
24.3254
23.6389
22.9441
22.2442
21.5413
20.8368
20.1313
19.4251
18.7184
18.0113
17.3042
16.5972
15.8906
15.1844
14.4784
13.7726
13.0667
12.3608
11.6547
10.9485
10.2423
9.536
8.82967
8.12331
7.41695
6.71058
6.0042
5.29783
4.59145
3.88508
3.1787
2.47232
1.76595
1.05957
0.353197
27.233
26.7831
26.2363
25.6287
24.9835
24.3148
23.6314
22.9388
22.2405
21.5388
20.8351
20.1301
19.4243
18.7179
18.0111
17.3041
16.5972
15.8906
15.1844
14.4785
13.7726
13.0668
12.3608
11.6547
10.9485
10.2423
9.53599
8.82966
8.12331
7.41695
6.71058
6.0042
5.29783
4.59145
3.88507
3.1787
2.47232
1.76595
1.05957
0.353197
27.1499
26.7166
26.1852
25.5905
24.9555
24.2946
23.6171
22.9288
22.2336
21.5341
20.8319
20.128
19.4229
18.717
18.0105
17.3038
16.5972
15.8907
15.1845
14.4785
13.7727
13.0667
12.3608
11.6547
10.9485
10.2423
9.53596
8.82964
8.1233
7.41694
6.71057
6.0042
5.29782
4.59145
3.88507
3.1787
2.47232
1.76595
1.05957
0.353197
27.031
26.6225
26.1134
25.5372
24.9167
24.2668
23.5974
22.9151
22.2242
21.5277
20.8275
20.125
19.4209
18.7157
18.0098
17.3035
16.597
15.8907
15.1846
14.4786
13.7727
13.0667
12.3607
11.6546
10.9484
10.2422
9.53593
8.82961
8.12327
7.41692
6.71056
6.00419
5.29782
4.59145
3.88507
3.1787
2.47232
1.76595
1.05957
0.353197
26.8837
26.5074
26.0268
25.4736
24.8708
24.2342
23.5745
22.8992
22.2132
21.5202
20.8225
20.1216
19.4187
18.7142
18.0089
17.303
16.5969
15.8907
15.1846
14.4786
13.7727
13.0667
12.3607
11.6546
10.9484
10.2422
9.53589
8.82958
8.12325
7.4169
6.71055
6.00418
5.29781
4.59144
3.88507
3.17869
2.47232
1.76595
1.05957
0.353197
26.7183
26.3809
25.9332
25.4058
24.8225
24.2001
23.5508
22.8828
22.202
21.5126
20.8174
20.1182
19.4164
18.7128
18.008
17.3025
16.5967
15.8907
15.1847
14.4787
13.7727
13.0667
12.3606
11.6545
10.9483
10.2421
9.53585
8.82955
8.12323
7.41689
6.71053
6.00417
5.29781
4.59144
3.88507
3.17869
2.47232
1.76594
1.05957
0.353196
26.5486
26.2547
25.8419
25.341
24.7769
24.1684
23.5289
22.8678
22.1919
21.5058
20.8128
20.1152
19.4144
18.7115
18.0072
17.3021
16.5965
15.8906
15.1847
14.4787
13.7727
13.0667
12.3606
11.6545
10.9483
10.2421
9.53581
8.82952
8.12321
7.41687
6.71052
6.00417
5.2978
4.59143
3.88506
3.17869
2.47232
1.76594
1.05957
0.353195
26.3927
26.1432
25.7637
25.2867
24.7396
24.1429
23.5115
22.8561
22.184
21.5005
20.8093
20.1129
19.4129
18.7106
18.0067
17.3018
16.5964
15.8906
15.1847
14.4787
13.7727
13.0666
12.3606
11.6544
10.9483
10.242
9.53579
8.8295
8.12319
7.41686
6.71051
6.00416
5.2978
4.59143
3.88506
3.17869
2.47231
1.76594
1.05957
0.353193
26.2726
26.0626
25.71
25.251
24.7158
24.1271
23.5011
22.8492
22.1795
21.4976
20.8075
20.1117
19.4121
18.7101
18.0064
17.3017
16.5963
15.8906
15.1847
14.4787
13.7727
13.0666
12.3605
11.6544
10.9482
10.242
9.53577
8.82949
8.12318
7.41685
6.71051
6.00416
5.29779
4.59143
3.88506
3.17869
2.47231
1.76594
1.05957
0.353191
26.214
26.0313
25.6933
25.2421
24.7112
24.1248
23.5001
22.8488
22.1795
21.4977
20.8076
20.1119
19.4123
18.7102
18.0065
17.3018
16.5964
15.8906
15.1847
14.4787
13.7727
13.0666
12.3605
11.6544
10.9482
10.242
9.53577
8.82949
8.12318
7.41685
6.71051
6.00415
5.29779
4.59143
3.88506
3.17869
2.47231
1.76594
1.05956
0.35319
26.2725
26.0625
25.7098
25.2508
24.7157
24.127
23.5009
22.849
22.1793
21.4974
20.8072
20.1114
19.4118
18.7098
18.0061
17.3013
16.5959
15.8902
15.1844
14.4784
13.7724
13.0664
12.3604
11.6543
10.9481
10.2419
9.5357
8.82943
8.12314
7.41682
6.71048
6.00414
5.29778
4.59142
3.88505
3.17868
2.47231
1.76594
1.05957
0.35319
26.3232
26.0734
25.7038
25.2392
24.7034
24.116
23.4919
22.8418
22.1738
21.4932
20.8041
20.1091
19.4102
18.7086
18.0052
17.3008
16.5956
15.89
15.1842
14.4783
13.7724
13.0664
12.3603
11.6542
10.9481
10.2419
9.53568
8.82941
8.12312
7.41681
6.71048
6.00413
5.29778
4.59142
3.88505
3.17868
2.47231
1.76594
1.05956
0.353189
26.4433
26.1445
25.7451
25.2627
24.7166
24.1231
23.4955
22.8435
22.1744
21.4933
20.8039
20.1088
19.4099
18.7083
18.005
17.3005
16.5954
15.8898
15.1841
14.4782
13.7723
13.0663
12.3603
11.6542
10.9481
10.2419
9.53567
8.82941
8.12312
7.41681
6.71047
6.00413
5.29778
4.59142
3.88505
3.17868
2.47231
1.76594
1.05956
0.35319
26.6052
26.2525
25.8168
25.31
24.7475
24.1433
23.5085
22.8519
22.1797
21.4966
20.8059
20.11
19.4106
18.7087
18.0052
17.3006
16.5954
15.8898
15.184
14.4782
13.7723
13.0663
12.3603
11.6542
10.9481
10.2419
9.53568
8.82942
8.12313
7.41681
6.71048
6.00413
5.29778
4.59142
3.88505
3.17868
2.47231
1.76594
1.05956
0.35319
26.7831
26.3781
25.9047
25.3709
24.7893
24.1717
23.5276
22.8646
22.1881
21.5021
20.8095
20.1123
19.412
18.7096
18.0057
17.3008
16.5954
15.8898
15.184
14.4781
13.7723
13.0663
12.3603
11.6543
10.9481
10.2419
9.53571
8.82944
8.12314
7.41682
6.71049
6.00414
5.29778
4.59142
3.88505
3.17868
2.47231
1.76594
1.05956
0.35319
26.957
26.5052
25.9966
25.4363
24.8353
24.2037
23.5496
22.8796
22.1982
21.5088
20.8139
20.1152
19.4139
18.7108
18.0064
17.3012
16.5956
15.8898
15.184
14.4781
13.7723
13.0663
12.3604
11.6543
10.9482
10.242
9.53574
8.82947
8.12316
7.41684
6.7105
6.00414
5.29779
4.59142
3.88505
3.17868
2.47231
1.76594
1.05956
0.353189
27.1118
26.6213
26.0822
25.4985
24.8798
24.235
23.5715
22.8946
22.2084
21.5157
20.8185
20.1183
19.4159
18.7121
18.0071
17.3016
16.5958
15.8898
15.184
14.4781
13.7723
13.0664
12.3604
11.6544
10.9482
10.242
9.53578
8.8295
8.12319
7.41685
6.71051
6.00415
5.29779
4.59143
3.88506
3.17868
2.47231
1.76594
1.05956
0.353189
27.2366
26.7164
26.1535
25.5509
24.9177
24.262
23.5904
22.9077
22.2174
21.5218
20.8226
20.1211
19.4178
18.7132
18.0079
17.302
16.5959
15.8899
15.1839
14.4781
13.7723
13.0664
12.3605
11.6544
10.9483
10.2421
9.53582
8.82953
8.12321
7.41687
6.71052
6.00416
5.2978
4.59143
3.88506
3.17869
2.47231
1.76594
1.05956
0.353189
27.3237
26.7837
26.2044
25.5887
24.9452
24.2817
23.6044
22.9175
22.2241
21.5264
20.8257
20.1231
19.4192
18.7142
18.0084
17.3023
16.5961
15.8899
15.1839
14.4781
13.7723
13.0664
12.3605
11.6545
10.9483
10.2421
9.53585
8.82955
8.12323
7.41689
6.71053
6.00417
5.2978
4.59143
3.88506
3.17869
2.47231
1.76594
1.05956
0.353189
27.3684
26.8184
26.2308
25.6084
24.9596
24.2921
23.6117
22.9226
22.2276
21.5288
20.8274
20.1243
19.4199
18.7147
18.0087
17.3025
16.5961
15.8899
15.184
14.4781
13.7723
13.0665
12.3605
11.6545
10.9483
10.2421
9.53587
8.82957
8.12324
7.41689
6.71054
6.00417
5.29781
4.59143
3.88506
3.17869
2.47231
1.76594
1.05956
0.353189
27.3685
26.8184
26.2308
25.6084
24.9596
24.2921
23.6117
22.9226
22.2277
21.5288
20.8274
20.1243
19.42
18.7147
18.0088
17.3025
16.5962
15.89
15.184
14.4782
13.7724
13.0665
12.3606
11.6545
10.9484
10.2421
9.53588
8.82958
8.12325
7.4169
6.71054
6.00418
5.29781
4.59144
3.88506
3.17869
2.47231
1.76594
1.05956
0.353189
27.3238
26.7837
26.2044
25.5887
24.9452
24.2817
23.6044
22.9175
22.2241
21.5264
20.8258
20.1232
19.4193
18.7143
18.0085
17.3024
16.5962
15.89
15.184
14.4782
13.7724
13.0665
12.3606
11.6545
10.9484
10.2421
9.53587
8.82957
8.12324
7.4169
6.71054
6.00418
5.29781
4.59143
3.88506
3.17869
2.47231
1.76594
1.05956
0.353189
27.2366
26.7165
26.1536
25.551
24.9177
24.2621
23.5905
22.9078
22.2175
21.5219
20.8228
20.1212
19.4179
18.7134
18.008
17.3022
16.5961
15.89
15.1841
14.4782
13.7724
13.0665
12.3605
11.6545
10.9483
10.2421
9.53586
8.82956
8.12323
7.41689
6.71053
6.00417
5.2978
4.59143
3.88506
3.17869
2.47231
1.76594
1.05956
0.353189
27.1119
26.6214
26.0823
25.4986
24.8798
24.2351
23.5716
22.8947
22.2085
21.5158
20.8187
20.1185
19.4161
18.7123
18.0074
17.3018
16.596
15.8901
15.1842
14.4783
13.7724
13.0665
12.3605
11.6544
10.9483
10.2421
9.53583
8.82954
8.12322
7.41688
6.71053
6.00417
5.2978
4.59143
3.88506
3.17869
2.47231
1.76593
1.05956
0.353189
26.9571
26.5053
25.9966
25.4364
24.8354
24.2038
23.5498
22.8797
22.1983
21.509
20.8141
20.1155
19.4142
18.711
18.0066
17.3015
16.5959
15.8901
15.1842
14.4783
13.7724
13.0665
12.3605
11.6544
10.9483
10.2421
9.5358
8.82952
8.1232
7.41687
6.71052
6.00416
5.2978
4.59143
3.88506
3.17868
2.47231
1.76593
1.05956
0.35319
26.7832
26.3782
25.9048
25.371
24.7894
24.1718
23.5278
22.8648
22.1883
21.5023
20.8097
20.1126
19.4123
18.7099
18.006
17.3011
16.5957
15.8901
15.1843
14.4784
13.7725
13.0665
12.3605
11.6544
10.9482
10.242
9.53578
8.82949
8.12318
7.41685
6.71051
6.00415
5.29779
4.59143
3.88506
3.17868
2.47231
1.76593
1.05956
0.35319
26.6053
26.2526
25.8169
25.3101
24.7477
24.1434
23.5087
22.852
22.1798
21.4968
20.8061
20.1103
19.4109
18.709
18.0055
17.3009
16.5957
15.8901
15.1843
14.4784
13.7725
13.0665
12.3605
11.6544
10.9482
10.242
9.53576
8.82948
8.12317
7.41684
6.7105
6.00415
5.29779
4.59142
3.88505
3.17868
2.47231
1.76594
1.05956
0.35319
26.4434
26.1446
25.7452
25.2629
24.7167
24.1233
23.4957
22.8437
22.1746
21.4935
20.8041
20.1091
19.4102
18.7086
18.0053
17.3009
16.5957
15.8902
15.1844
14.4785
13.7725
13.0665
12.3605
11.6544
10.9482
10.242
9.53575
8.82947
8.12317
7.41684
6.7105
6.00415
5.29779
4.59142
3.88505
3.17868
2.47231
1.76594
1.05956
0.35319
26.3233
26.0735
25.7039
25.2393
24.7035
24.1161
23.492
22.842
22.174
21.4935
20.8044
20.1094
19.4105
18.7089
18.0056
17.3011
16.5959
15.8903
15.1845
14.4786
13.7726
13.0666
12.3605
11.6544
10.9482
10.242
9.53575
8.82947
8.12317
7.41684
6.7105
6.00415
5.29779
4.59142
3.88505
3.17868
2.47231
1.76594
1.05956
0.35319
26.2726
26.0626
25.71
25.2509
24.7158
24.1271
23.5011
22.8492
22.1795
21.4976
20.8074
20.1117
19.4121
18.7101
18.0064
17.3017
16.5963
15.8906
15.1847
14.4787
13.7727
13.0666
12.3605
11.6544
10.9482
10.242
9.53577
8.82949
8.12318
7.41685
6.71051
6.00415
5.29779
4.59143
3.88506
3.17868
2.47231
1.76594
1.05956
0.353189
26.3926
26.1431
25.7636
25.2866
24.7394
24.1427
23.5114
22.8559
22.1838
21.5003
20.8091
20.1126
19.4126
18.7102
18.0063
17.3014
16.596
15.8902
15.1844
14.4784
13.7724
13.0664
12.3604
11.6543
10.9481
10.2419
9.53571
8.82944
8.12314
7.41682
6.71049
6.00414
5.29778
4.59142
3.88506
3.17869
2.47231
1.76594
1.05957
0.353191
26.4433
26.1445
25.7451
25.2627
24.7166
24.1231
23.4955
22.8435
22.1744
21.4933
20.8039
20.1088
19.4099
18.7083
18.005
17.3005
16.5954
15.8898
15.1841
14.4782
13.7723
13.0663
12.3603
11.6542
10.9481
10.2419
9.53567
8.82941
8.12312
7.41681
6.71047
6.00413
5.29778
4.59142
3.88505
3.17868
2.47231
1.76594
1.05956
0.35319
26.564
26.2107
25.7786
25.278
24.7221
24.1238
23.4939
22.8411
22.1719
21.491
20.8019
20.1072
19.4086
18.7073
18.0042
17.3
16.595
15.8896
15.1839
14.4781
13.7722
13.0663
12.3602
11.6542
10.9481
10.2419
9.53565
8.8294
8.12311
7.4168
6.71047
6.00412
5.29777
4.59141
3.88505
3.17868
2.47231
1.76594
1.05956
0.35319
26.7295
26.3173
25.8462
25.3202
24.748
24.1395
23.5032
22.8465
22.1748
21.4925
20.8026
20.1074
19.4086
18.7072
18.004
17.2998
16.5948
15.8894
15.1837
14.478
13.7721
13.0662
12.3602
11.6542
10.948
10.2419
9.53565
8.8294
8.12311
7.4168
6.71047
6.00412
5.29777
4.59141
3.88505
3.17868
2.47231
1.76594
1.05956
0.35319
26.9134
26.4438
25.9323
25.3781
24.7867
24.1649
23.5198
22.8571
22.1815
21.4967
20.8052
20.109
19.4095
18.7077
18.0043
17.2998
16.5947
15.8892
15.1836
14.4779
13.7721
13.0662
12.3602
11.6542
10.9481
10.2419
9.53567
8.82941
8.12312
7.4168
6.71047
6.00413
5.29777
4.59141
3.88505
3.17868
2.47231
1.76594
1.05956
0.35319
27.0942
26.5731
26.0237
25.442
24.8307
24.195
23.5401
22.8706
22.1904
21.5024
20.8088
20.1113
19.411
18.7086
18.0047
17.3
16.5947
15.8892
15.1835
14.4778
13.7721
13.0662
12.3603
11.6542
10.9481
10.2419
9.53569
8.82943
8.12313
7.41681
6.71048
6.00413
5.29777
4.59141
3.88505
3.17868
2.47231
1.76594
1.05956
0.35319
27.2555
26.6916
26.1096
25.5034
24.874
24.2251
23.5607
22.8846
22.1998
21.5086
20.8129
20.114
19.4127
18.7096
18.0053
17.3003
16.5948
15.8891
15.1835
14.4778
13.7721
13.0662
12.3603
11.6543
10.9481
10.242
9.53572
8.82945
8.12315
7.41683
6.71049
6.00414
5.29778
4.59142
3.88505
3.17868
2.47231
1.76594
1.05956
0.35319
27.3856
26.7889
26.1814
25.5555
24.9113
24.2513
23.5789
22.8971
22.2082
21.5142
20.8166
20.1164
19.4143
18.7107
18.0059
17.3005
16.5948
15.8891
15.1834
14.4778
13.7721
13.0663
12.3603
11.6543
10.9482
10.242
9.53576
8.82948
8.12317
7.41684
6.7105
6.00414
5.29778
4.59142
3.88505
3.17868
2.47231
1.76594
1.05956
0.35319
27.4765
26.8578
26.2327
25.5931
24.9384
24.2706
23.5924
22.9064
22.2145
21.5185
20.8195
20.1184
19.4156
18.7115
18.0064
17.3008
16.5949
15.8891
15.1834
14.4778
13.7721
13.0663
12.3604
11.6544
10.9482
10.242
9.53578
8.8295
8.12318
7.41685
6.71051
6.00415
5.29779
4.59142
3.88505
3.17868
2.47231
1.76594
1.05956
0.353189
27.5231
26.8933
26.2594
25.6128
24.9527
24.2808
23.5996
22.9113
22.2179
21.5208
20.821
20.1194
19.4163
18.7119
18.0067
17.3009
16.5949
15.8891
15.1834
14.4778
13.7721
13.0663
12.3604
11.6544
10.9483
10.2421
9.5358
8.82951
8.1232
7.41686
6.71051
6.00415
5.29779
4.59143
3.88506
3.17869
2.47231
1.76594
1.05956
0.353189
27.5232
26.8933
26.2594
25.6128
24.9527
24.2808
23.5996
22.9113
22.2179
21.5208
20.8211
20.1194
19.4163
18.712
18.0067
17.3009
16.595
15.8891
15.1834
14.4778
13.7722
13.0664
12.3604
11.6544
10.9483
10.2421
9.53581
8.82952
8.1232
7.41686
6.71051
6.00416
5.29779
4.59143
3.88506
3.17869
2.47231
1.76594
1.05956
0.353189
27.4765
26.8578
26.2328
25.5932
24.9384
24.2706
23.5925
22.9064
22.2146
21.5186
20.8196
20.1184
19.4157
18.7116
18.0065
17.3009
16.595
15.8892
15.1835
14.4779
13.7722
13.0664
12.3604
11.6544
10.9483
10.2421
9.53581
8.82952
8.1232
7.41686
6.71051
6.00416
5.29779
4.59143
3.88506
3.17869
2.47231
1.76594
1.05956
0.353189
27.3856
26.789
26.1815
25.5556
24.9113
24.2514
23.579
22.8972
22.2083
21.5143
20.8168
20.1166
19.4145
18.7108
18.0061
17.3007
16.595
15.8892
15.1836
14.4779
13.7722
13.0664
12.3604
11.6544
10.9482
10.242
9.53579
8.82951
8.12319
7.41686
6.71051
6.00415
5.29779
4.59143
3.88506
3.17869
2.47231
1.76594
1.05956
0.353189
27.2555
26.6917
26.1097
25.5035
24.8741
24.2252
23.5608
22.8847
22.1999
21.5087
20.8131
20.1142
19.4129
18.7098
18.0056
17.3005
16.595
15.8893
15.1837
14.478
13.7722
13.0664
12.3604
11.6544
10.9482
10.242
9.53578
8.82949
8.12318
7.41685
6.71051
6.00415
5.29779
4.59142
3.88506
3.17868
2.47231
1.76594
1.05956
0.353189
27.0943
26.5732
26.0238
25.4421
24.8308
24.1951
23.5402
22.8707
22.1905
21.5026
20.809
20.1115
19.4112
18.7088
18.005
17.3003
16.595
15.8894
15.1838
14.4781
13.7723
13.0664
12.3604
11.6543
10.9482
10.242
9.53575
8.82948
8.12317
7.41684
6.7105
6.00415
5.29779
4.59142
3.88505
3.17868
2.47231
1.76594
1.05956
0.353189
26.9135
26.4439
25.9324
25.3782
24.7868
24.165
23.5199
22.8573
22.1817
21.4969
20.8054
20.1092
19.4098
18.708
18.0046
17.3001
16.595
15.8895
15.1839
14.4781
13.7723
13.0664
12.3604
11.6543
10.9482
10.242
9.53574
8.82946
8.12316
7.41683
6.71049
6.00414
5.29778
4.59142
3.88505
3.17868
2.47231
1.76594
1.05956
0.353189
26.7296
26.3174
25.8463
25.3203
24.7482
24.1396
23.5034
22.8466
22.175
21.4927
20.8028
20.1077
19.4089
18.7075
18.0044
17.3001
16.5951
15.8897
15.184
14.4782
13.7724
13.0664
12.3604
11.6543
10.9482
10.242
9.53573
8.82945
8.12315
7.41683
6.71049
6.00414
5.29778
4.59142
3.88505
3.17868
2.47231
1.76594
1.05956
0.353189
26.5641
26.2108
25.7787
25.2781
24.7222
24.1239
23.4941
22.8413
22.1721
21.4912
20.8022
20.1075
19.4089
18.7077
18.0046
17.3003
16.5953
15.8899
15.1842
14.4784
13.7724
13.0665
12.3604
11.6543
10.9482
10.242
9.53573
8.82945
8.12315
7.41683
6.71049
6.00414
5.29778
4.59142
3.88505
3.17868
2.47231
1.76594
1.05956
0.353189
26.4434
26.1446
25.7452
25.2629
24.7167
24.1233
23.4957
22.8437
22.1746
21.4935
20.8041
20.1091
19.4102
18.7086
18.0053
17.3009
16.5957
15.8902
15.1844
14.4785
13.7725
13.0665
12.3605
11.6544
10.9482
10.242
9.53575
8.82947
8.12316
7.41684
6.7105
6.00415
5.29779
4.59142
3.88505
3.17868
2.47231
1.76594
1.05956
0.353189
26.3927
26.1432
25.7637
25.2867
24.7396
24.1429
23.5115
22.8561
22.184
21.5005
20.8093
20.1129
19.4129
18.7105
18.0067
17.3018
16.5963
15.8906
15.1847
14.4787
13.7727
13.0666
12.3605
11.6544
10.9482
10.242
9.53578
8.82949
8.12318
7.41685
6.71051
6.00415
5.29779
4.59143
3.88506
3.17868
2.47231
1.76594
1.05956
0.353189
26.5485
26.2546
25.8418
25.3408
24.7768
24.1683
23.5287
22.8676
22.1917
21.5056
20.8126
20.1149
19.4141
18.7112
18.0069
17.3018
16.5961
15.8903
15.1844
14.4784
13.7724
13.0664
12.3604
11.6543
10.9482
10.242
9.53574
8.82946
8.12316
7.41684
6.7105
6.00415
5.29779
4.59142
3.88506
3.17869
2.47231
1.76594
1.05957
0.353191
26.6052
26.2525
25.8168
25.31
24.7475
24.1433
23.5085
22.8519
22.1797
21.4966
20.8059
20.11
19.4106
18.7087
18.0052
17.3006
16.5954
15.8898
15.184
14.4782
13.7723
13.0663
12.3603
11.6542
10.9481
10.2419
9.53568
8.82942
8.12313
7.41681
6.71048
6.00413
5.29778
4.59142
3.88505
3.17868
2.47231
1.76594
1.05956
0.35319
26.7295
26.3173
25.8462
25.3202
24.748
24.1395
23.5032
22.8465
22.1748
21.4925
20.8026
20.1074
19.4086
18.7072
18.004
17.2998
16.5948
15.8894
15.1837
14.478
13.7721
13.0662
12.3602
11.6542
10.948
10.2419
9.53565
8.8294
8.12311
7.4168
6.71047
6.00412
5.29777