# vtk DataFile Version 2.0
I need something to put here
ASCII

DATASET STRUCTURED_GRID
DIMENSIONS 41 21 21
POINTS 18081 float
0.000000 0.000000 0.000000
0.100000 0.000000 0.000000
0.200000 0.000000 0.000000
0.300000 0.000000 0.000000
0.400000 0.000000 0.000000
0.500000 0.000000 0.000000
0.600000 0.000000 0.000000
0.700000 0.000000 0.000000
0.800000 0.000000 0.000000
0.900000 0.000000 0.000000
1.000000 0.000000 0.000000
1.100000 0.000000 0.000000
1.200000 0.000000 0.000000
1.300000 0.000000 0.000000
1.400000 0.000000 0.000000
1.500000 0.000000 0.000000
1.600000 0.000000 0.000000
1.700000 0.000000 0.000000
1.800000 0.000000 0.000000
1.900000 0.000000 0.000000
2.000000 0.000000 0.000000
2.100000 0.000000 0.000000
2.200000 0.000000 0.000000
2.300000 0.000000 0.000000
2.400000 0.000000 0.000000
2.500000 0.000000 0.000000
2.600000 0.000000 0.000000
2.700000 0.000000 0.000000
2.800000 0.000000 0.000000
2.900000 0.000000 0.000000
3.000000 0.000000 0.000000
3.100000 0.000000 0.000000
3.200000 0.000000 0.000000
3.300000 0.000000 0.000000
3.400000 0.000000 0.000000
3.500000 0.000000 0.000000
3.600000 0.000000 0.000000
3.700000 0.000000 0.000000
3.800000 0.000000 0.000000
3.900000 0.000000 0.000000
4.000000 0.000000 0.000000
0.000000 0.100000 0.000000
0.100000 0.100000 0.000000
0.200000 0.100000 0.000000
0.300000 0.100000 0.000000
0.400000 0.100000 0.000000
0.500000 0.100000 0.000000
0.600000 0.100000 0.000000
0.700000 0.100000 0.000000
0.800000 0.100000 0.000000
0.900000 0.100000 0.000000
1.000000 0.100000 0.000000
1.100000 0.100000 0.000000
1.200000 0.100000 0.000000
1.300000 0.100000 0.000000
1.400000 0.100000 0.000000
1.500000 0.100000 0.000000
1.600000 0.100000 0.000000
1.700000 0.100000 0.000000
1.800000 0.100000 0.000000
1.900000 0.100000 0.000000
2.000000 0.100000 0.000000
2.100000 0.100000 0.000000
2.200000 0.100000 0.000000
2.300000 0.100000 0.000000
2.400000 0.100000 0.000000
2.500000 0.100000 0.000000
2.600000 0.100000 0.000000
2.700000 0.100000 0.000000
2.800000 0.100000 0.000000
2.900000 0.100000 0.000000
3.000000 0.100000 0.000000
3.100000 0.100000 0.000000
3.200000 0.100000 0.000000
3.300000 0.100000 0.000000
3.400000 0.100000 0.000000
3.500000 0.100000 0.000000
3.600000 0.100000 0.000000
3.700000 0.100000 0.000000
3.800000 0.100000 0.000000
3.900000 0.100000 0.000000
4.000000 0.100000 0.000000
0.000000 0.200000 0.000000
0.100000 0.200000 0.000000
0.200000 0.200000 0.000000
0.300000 0.200000 0.000000
0.400000 0.200000 0.000000
0.500000 0.200000 0.000000
0.600000 0.200000 0.000000
0.700000 0.200000 0.000000
0.800000 0.200000 0.000000
0.900000 0.200000 0.000000
1.000000 0.200000 0.000000
1.100000 0.200000 0.000000
1.200000 0.200000 0.000000
1.300000 0.200000 0.000000
1.400000 0.200000 0.000000
1.500000 0.200000 0.000000
1.600000 0.200000 0.000000
1.700000 0.200000 0.000000
1.800000 0.200000 0.000000
1.900000 0.200000 0.000000
2.000000 0.200000 0.000000
2.100000 0.200000 0.000000
2.200000 0.200000 0.000000
2.300000 0.200000 0.000000
2.400000 0.200000 0.000000
2.500000 0.200000 0.000000
2.600000 0.200000 0.000000
2.700000 0.200000 0.000000
2.800000 0.200000 0.000000
2.900000 0.200000 0.000000
3.000000 0.200000 0.000000
3.100000 0.200000 0.000000
3.200000 0.200000 0.000000
3.300000 0.200000 0.000000
3.400000 0.200000 0.000000
3.500000 0.200000 0.000000
3.600000 0.200000 0.000000
3.700000 0.200000 0.000000
3.800000 0.200000 0.000000
3.900000 0.200000 0.000000
4.000000 0.200000 0.000000
0.000000 0.300000 0.000000
0.100000 0.300000 0.000000
0.200000 0.300000 0.000000
0.300000 0.300000 0.000000
0.400000 0.300000 0.000000
0.500000 0.300000 0.000000
0.600000 0.300000 0.000000
0.700000 0.300000 0.000000
0.800000 0.300000 0.000000
0.900000 0.300000 0.000000
1.000000 0.300000 0.000000
1.100000 0.300000 0.000000
1.200000 0.300000 0.000000
1.300000 0.300000 0.000000
1.400000 0.300000 0.000000
1.500000 0.300000 0.000000
1.600000 0.300000 0.000000
1.700000 0.300000 0.000000
1.800000 0.300000 0.000000
1.900000 0.300000 0.000000
2.000000 0.300000 0.000000
2.100000 0.300000 0.000000
2.200000 0.300000 0.000000
2.300000 0.300000 0.000000
2.400000 0.300000 0.000000
2.500000 0.300000 0.000000
2.600000 0.300000 0.000000
2.700000 0.300000 0.000000
2.800000 0.300000 0.000000
2.900000 0.300000 0.000000
3.000000 0.300000 0.000000
3.100000 0.300000 0.000000
3.200000 0.300000 0.000000
3.300000 0.300000 0.000000
3.400000 0.300000 0.000000
3.500000 0.300000 0.000000
3.600000 0.300000 0.000000
3.700000 0.300000 0.000000
3.800000 0.300000 0.000000
3.900000 0.300000 0.000000
4.000000 0.300000 0.000000
0.000000 0.400000 0.000000
0.100000 0.400000 0.000000
0.200000 0.400000 0.000000
0.300000 0.400000 0.000000
0.400000 0.400000 0.000000
0.500000 0.400000 0.000000
0.600000 0.400000 0.000000
0.700000 0.400000 0.000000
0.800000 0.400000 0.000000
0.900000 0.400000 0.000000
1.000000 0.400000 0.000000
1.100000 0.400000 0.000000
1.200000 0.400000 0.000000
1.300000 0.400000 0.000000
1.400000 0.400000 0.000000
1.500000 0.400000 0.000000
1.600000 0.400000 0.000000
1.700000 0.400000 0.000000
1.800000 0.400000 0.000000
1.900000 0.400000 0.000000
2.000000 0.400000 0.000000
2.100000 0.400000 0.000000
2.200000 0.400000 0.000000
2.300000 0.400000 0.000000
2.400000 0.400000 0.000000
2.500000 0.400000 0.000000
2.600000 0.400000 0.000000
2.700000 0.400000 0.000000
2.800000 0.400000 0.000000
2.900000 0.400000 0.000000
3.000000 0.400000 0.000000
3.100000 0.400000 0.000000
3.200000 0.400000 0.000000
3.300000 0.400000 0.000000
3.400000 0.400000 0.000000
3.500000 0.400000 0.000000
3.600000 0.400000 0.000000
3.700000 0.400000 0.000000
3.800000 0.400000 0.000000
3.900000 0.400000 0.000000
4.000000 0.400000 0.000000
0.000000 0.500000 0.000000
0.100000 0.500000 0.000000
0.200000 0.500000 0.000000
0.300000 0.500000 0.000000
0.400000 0.500000 0.000000
0.500000 0.500000 0.000000
0.600000 0.500000 0.000000
0.700000 0.500000 0.000000
0.800000 0.500000 0.000000
0.900000 0.500000 0.000000
1.000000 0.500000 0.000000
1.100000 0.500000 0.000000
1.200000 0.500000 0.000000
1.300000 0.500000 0.000000
1.400000 0.500000 0.000000
1.500000 0.500000 0.000000
1.600000 0.500000 0.000000
1.700000 0.500000 0.000000
1.800000 0.500000 0.000000
1.900000 0.500000 0.000000
2.000000 0.500000 0.000000
2.100000 0.500000 0.000000
2.200000 0.500000 0.000000
2.300000 0.500000 0.000000
2.400000 0.500000 0.000000
2.500000 0.500000 0.000000
2.600000 0.500000 0.000000
2.700000 0.500000 0.000000
2.800000 0.500000 0.000000
2.900000 0.500000 0.000000
3.000000 0.500000 0.000000
3.100000 0.500000 0.000000
3.200000 0.500000 0.000000
3.300000 0.500000 0.000000
3.400000 0.500000 0.000000
3.500000 0.500000 0.000000
3.600000 0.500000 0.000000
3.700000 0.500000 0.000000
3.800000 0.500000 0.000000
3.900000 0.500000 0.000000
4.000000 0.500000 0.000000
0.000000 0.600000 0.000000
0.100000 0.600000 0.000000
0.200000 0.600000 0.000000
0.300000 0.600000 0.000000
0.400000 0.600000 0.000000
0.500000 0.600000 0.000000
0.600000 0.600000 0.000000
0.700000 0.600000 0.000000
0.800000 0.600000 0.000000
0.900000 0.600000 0.000000
1.000000 0.600000 0.000000
1.100000 0.600000 0.000000
1.200000 0.600000 0.000000
1.300000 0.600000 0.000000
1.400000 0.600000 0.000000
1.500000 0.600000 0.000000
1.600000 0.600000 0.000000
1.700000 0.600000 0.000000
1.800000 0.600000 0.000000
1.900000 0.600000 0.000000
2.000000 0.600000 0.000000
2.100000 0.600000 0.000000
2.200000 0.600000 0.000000
2.300000 0.600000 0.000000
2.400000 0.600000 0.000000
2.500000 0.600000 0.000000
2.600000 0.600000 0.000000
2.700000 0.600000 0.000000
2.800000 0.600000 0.000000
2.900000 0.600000 0.000000
3.000000 0.600000 0.000000
3.100000 0.600000 0.000000
3.200000 0.600000 0.000000
3.300000 0.600000 0.000000
3.400000 0.600000 0.000000
3.500000 0.600000 0.000000
3.600000 0.600000 0.000000
3.700000 0.600000 0.000000
3.800000 0.600000 0.000000
3.900000 0.600000 0.000000
4.000000 0.600000 0.000000
0.000000 0.700000 0.000000
0.100000 0.700000 0.000000
0.200000 0.700000 0.000000
0.300000 0.700000 0.000000
0.400000 0.700000 0.000000
0.500000 0.700000 0.000000
0.600000 0.700000 0.000000
0.700000 0.700000 0.000000
0.800000 0.700000 0.000000
0.900000 0.700000 0.000000
1.000000 0.700000 0.000000
1.100000 0.700000 0.000000
1.200000 0.700000 0.000000
1.300000 0.700000 0.000000
1.400000 0.700000 0.000000
1.500000 0.700000 0.000000
1.600000 0.700000 0.000000
1.700000 0.700000 0.000000
1.800000 0.700000 0.000000
1.900000 0.700000 0.000000
2.000000 0.700000 0.000000
2.100000 0.700000 0.000000
2.200000 0.700000 0.000000
2.300000 0.700000 0.000000
2.400000 0.700000 0.000000
2.500000 0.700000 0.000000
2.600000 0.700000 0.000000
2.700000 0.700000 0.000000
2.800000 0.700000 0.000000
2.900000 0.700000 0.000000
3.000000 0.700000 0.000000
3.100000 0.700000 0.000000
3.200000 0.700000 0.000000
3.300000 0.700000 0.000000
3.400000 0.700000 0.000000
3.500000 0.700000 0.000000
3.600000 0.700000 0.000000
3.700000 0.700000 0.000000
3.800000 0.700000 0.000000
3.900000 0.700000 0.000000
4.000000 0.700000 0.000000
0.000000 0.800000 0.000000
0.100000 0.800000 0.000000
0.200000 0.800000 0.000000
0.300000 0.800000 0.000000
0.400000 0.800000 0.000000
0.500000 0.800000 0.000000
0.600000 0.800000 0.000000
0.700000 0.800000 0.000000
0.800000 0.800000 0.000000
0.900000 0.800000 0.000000
1.000000 0.800000 0.000000
1.100000 0.800000 0.000000
1.200000 0.800000 0.000000
1.300000 0.800000 0.000000
1.400000 0.800000 0.000000
1.500000 0.800000 0.000000
1.600000 0.800000 0.000000
1.700000 0.800000 0.000000
1.800000 0.800000 0.000000
1.900000 0.800000 0.000000
2.000000 0.800000 0.000000
2.100000 0.800000 0.000000
2.200000 0.800000 0.000000
2.300000 0.800000 0.000000
2.400000 0.800000 0.000000
2.500000 0.800000 0.000000
2.600000 0.800000 0.000000
2.700000 0.800000 0.000000
2.800000 0.800000 0.000000
2.900000 0.800000 0.000000
3.000000 0.800000 0.000000
3.100000 0.800000 0.000000
3.200000 0.800000 0.000000
3.300000 0.800000 0.000000
3.400000 0.800000 0.000000
3.500000 0.800000 0.000000
3.600000 0.800000 0.000000
[...]
CELL_DATA 16000
SCALARS pressure float 1
LOOKUP_TABLE default
26.2144
26.0317
25.6937
25.2425
24.7117
24.1253
23.5005
22.8492
22.1798
21.4981
20.8079
20.1121
19.4125
18.7103
18.0065
17.3017
16.5962
15.8905
15.1845
14.4785
13.7725
13.0664
12.3604
11.6542
10.9481
10.2419
9.53567
8.82941
8.12312
7.41681
6.71048
6.00413
5.29778
4.59142
3.88505
3.17868
2.47231
1.76594
1.05957
0.35319
26.273
26.063
25.7104
25.2514
24.7162
24.1275
23.5015
22.8496
22.1799
21.4979
20.8077
20.1119
19.4123
18.7102
18.0064
17.3016
16.5962
15.8904
15.1845
14.4785
13.7725
13.0664
12.3603
11.6542
10.9481
10.2419
9.53567
8.82941
8.12312
7.41681
6.71047
6.00413
5.29778
4.59142
3.88505
3.17868
2.47231
1.76594
1.05957
0.353191
26.3931
26.1437
25.7642
25.2872
24.74
24.1433
23.5119
22.8565
22.1844
21.5009
20.8096
20.1131
19.4131
18.7106
18.0067
17.3017
16.5962
15.8904
15.1844
14.4784
13.7724
13.0664
12.3604
11.6542
10.9481
10.2419
9.53568
8.82942
8.12313
7.41681
6.71048
6.00413
5.29778
4.59142
3.88505
3.17869
2.47231
1.76594
1.05957
0.353191
26.5491
26.2552
25.8424
25.3414
24.7773
24.1688
23.5293
22.8682
22.1922
21.5061
20.8131
20.1154
19.4146
18.7116
18.0072
17.302
16.5963
15.8904
15.1844
14.4784
13.7724
13.0664
12.3604
11.6543
10.9481
10.2419
9.53571
8.82944
8.12314
7.41682
6.71049
6.00414
5.29778
4.59142
3.88506
3.17869
2.47232
1.76594
1.05957
0.353192
26.7187
26.3813
25.9336
25.4063
24.8229
24.2006
23.5512
22.8832
22.2024
21.513
20.8177
20.1185
19.4166
18.7129
18.008
17.3025
16.5965
15.8905
15.1844
14.4784
13.7724
13.0664
12.3604
11.6543
10.9482
10.242
9.53575
8.82947
8.12317
7.41684
6.7105
6.00415
5.29779
4.59143
3.88506
3.17869
2.47232
1.76594
1.05957
0.353193
26.8841
26.5079
26.0273
25.4741
24.8713
24.2346
23.5749
22.8996
22.2136
21.5206
20.8228
20.1219
19.4189
18.7144
18.009
17.303
16.5968
15.8905
15.1844
14.4784
13.7724
13.0665
12.3605
11.6544
10.9482
10.242
9.5358
8.82951
8.12319
7.41686
6.71052
6.00416
5.2978
4.59143
3.88506
3.17869
2.47232
1.76595
1.05957
0.353194
27.0314
26.6229
26.1139
25.5377
24.9172
24.2673
23.5979
22.9155
22.2246
21.5281
20.8279
20.1254
19.4212
18.7159
18.0099
17.3035
16.597
15.8906
15.1844
14.4784
13.7725
13.0665
12.3605
11.6545
10.9483
10.2421
9.53585
8.82955
8.12323
7.41689
6.71053
6.00417
5.29781
4.59144
3.88507
3.17869
2.47232
1.76595
1.05957
0.353195
27.1504
26.7171
26.1857
25.591
24.956
24.2951
23.6176
22.9293
22.2341
21.5346
20.8324
20.1284
19.4233
18.7173
18.0107
17.3039
16.5971
15.8906
15.1844
14.4784
13.7725
13.0666
12.3606
11.6545
10.9484
10.2422
9.5359
8.82959
8.12326
7.41691
6.71055
6.00418
5.29781
4.59144
3.88507
3.1787
2.47232
1.76595
1.05957
0.353195
27.2335
26.7836
26.2368
25.6293
24.984
24.3153
23.6319
22.9393
22.2411
21.5394
20.8356
20.1306
19.4248
18.7183
18.0114
17.3043
16.5973
15.8906
15.1844
14.4784
13.7725
13.0666
12.3607
11.6546
10.9484
10.2422
9.53594
8.82962
8.12328
7.41693
6.71056
6.00419
5.29782
4.59145
3.88507
3.1787
2.47232
1.76595
1.05957
0.353196
27.2763
26.818
26.2633
25.6492
24.9987
24.3259
23.6395
22.9446
22.2447
21.5419
20.8374
20.1319
19.4256
18.7189
18.0117
17.3045
16.5974
15.8907
15.1844
14.4784
13.7725
13.0667
12.3607
11.6546
10.9485
10.2423
9.53597
8.82964
8.1233
7.41694
6.71057
6.0042
5.29783
4.59145
3.88508
3.1787
2.47232
1.76595
1.05957
0.353197
27.2763
26.818
26.2634
25.6492
24.9987
24.326
23.6395
22.9446
22.2448
21.5419
20.8374
20.1319
19.4257
18.7189
18.0118
17.3045
16.5974
15.8907
15.1844
14.4784
13.7726
13.0667
12.3607
11.6547
10.9485
10.2423
9.53598
8.82965
8.12331
7.41695
6.71058
6.0042
5.29783
4.59145
3.88508
3.1787
2.47233
1.76595
1.05957
0.353197
27.2336
26.7837
26.2368
25.6293
24.9841
24.3154
23.632
22.9394
22.2411
21.5395
20.8357
20.1308
19.4249
18.7185
18.0115
17.3044
16.5974
15.8908
15.1845
14.4785
13.7726
13.0667
12.3607
11.6547
10.9485
10.2423
9.53598
8.82965
8.1233
7.41694
6.71058
6.0042
5.29783
4.59145
3.88508
3.1787
2.47232
1.76595
1.05957
0.353197
27.1504
26.7172
26.1857
25.5911
24.9561
24.2952
23.6176
22.9294
22.2342
21.5347
20.8325
20.1286
19.4235
18.7175
18.011
17.3042
16.5974
15.8909
15.1846
14.4786
13.7727
13.0667
12.3607
11.6547
10.9485
10.2422
9.53596
8.82964
8.12329
7.41694
6.71057
6.0042
5.29783
4.59145
3.88508
3.1787
2.47232
1.76595
1.05957
0.353197
27.0315
26.623
26.1139
25.5378
24.9173
24.2674
23.598
22.9157
22.2248
21.5283
20.8281
20.1256
19.4215
18.7163
18.0103
17.3038
16.5973
15.8909
15.1847
14.4787
13.7727
13.0667
12.3607
11.6546
10.9484
10.2422
9.53593
8.82961
8.12328
7.41692
6.71056
6.00419
5.29782
4.59145
3.88507
3.1787
2.47232
1.76595
1.05957
0.353197
26.8842
26.508
26.0274
25.4742
24.8714
24.2348
23.5751
22.8997
22.2138
21.5208
20.8231
20.1222
19.4193
18.7148
18.0094
17.3034
16.5972
15.8909
15.1848
14.4787
13.7728
13.0667
12.3607
11.6546
10.9484
10.2422
9.53589
8.82958
8.12325
7.41691
6.71055
6.00418
5.29782
4.59144
3.88507
3.1787
2.47232
1.76595
1.05957
0.353196
26.7188
26.3815
25.9337
25.4064
24.823
24.2007
23.5513
22.8834
22.2026
21.5132
20.818
20.1188
19.417
18.7133
18.0085
17.3029
16.597
15.8909
15.1848
14.4788
13.7728
13.0667
12.3607
11.6545
10.9484
10.2421
9.53586
8.82956
8.12323
7.41689
6.71054
6.00418
5.29781
4.59144
3.88507
3.17869
2.47232
1.76594
1.05957
0.353196
26.5492
26.2553
25.8425
25.3415
24.7775
24.169
23.5295
22.8684
22.1925
21.5064
20.8134
20.1158
19.415
18.7121
18.0077
17.3025
16.5968
15.8909
15.1849
14.4788
13.7728
13.0667
12.3606
11.6545
10.9483
10.2421
9.53583
8.82953
8.12321
7.41687
6.71053
6.00417
5.2978
4.59143
3.88506
3.17869
2.47232
1.76594
1.05957
0.353194
26.3932
26.1438
25.7643
25.2873
24.7401
24.1435
23.5121
22.8567
22.1846
21.5011
20.8099
20.1135
19.4135
18.7111
18.0072
17.3022
16.5967
15.8909
15.1849
14.4789
13.7728
13.0667
12.3606
11.6545
10.9483
10.2421
9.5358
8.82951
8.1232
7.41686
6.71052
6.00416
5.2978
4.59143
3.88506
3.17869
2.47231
1.76594
1.05957
0.353193
26.2731
26.0632
25.7105
25.2515
24.7164
24.1277
23.5017
22.8498
22.1801
21.4982
20.808
20.1123
19.4127
18.7106
18.0069
17.3021
16.5967
15.8909
15.1849
14.4789
13.7728
13.0667
12.3606
11.6545
10.9483
10.242
9.53579
8.8295
8.12319
7.41685
6.71051
6.00416
5.29779
4.59143
3.88506
3.17869
2.47231
1.76594
1.05957
0.353191
26.2146
26.0319
25.6938
25.2427
24.7118
24.1254
23.5006
22.8494
22.1801
21.4983
20.8082
20.1124
19.4129
18.7108
18.007
17.3022
16.5967
15.8909
15.185
14.4789
13.7728
13.0667
12.3606
11.6545
10.9483
10.242
9.53578
8.8295
8.12318
7.41685
6.71051
6.00415
5.29779
4.59143
3.88506
3.17869
2.47231
1.76594
1.05956
0.353189
26.273
26.063
25.7104
25.2514
24.7162
24.1275
23.5015
22.8496
22.1799
21.4979
20.8077
20.1119
19.4123
18.7102
18.0064
17.3016
16.5962
15.8904
15.1845
14.4785
13.7725
13.0664
12.3603
11.6542
10.9481
10.2419
9.53567
8.82941
8.12312
7.41681
6.71047
6.00413
5.29778
4.59142
3.88505
3.17868
2.47231
1.76594
1.05957
0.353191
26.3237
26.074
25.7044
25.2397
24.7039
24.1166
23.4924
22.8424
22.1743
21.4938
20.8046
20.1096
19.4107
18.709
18.0056
17.301
16.5958
15.8901
15.1843
14.4784
13.7724
13.0664
12.3603
11.6542
10.9481
10.2419
9.53565
8.82939
8.1231
7.41679
6.71047
6.00412
5.29777
4.59141
3.88505
3.17868
2.47231
1.76594
1.05957
0.35319
26.4439
26.1451
25.7457
25.2633
24.7171
24.1237
23.4961
22.8441
22.1749
21.4938
20.8044
20.1093
19.4103
18.7087
18.0053
17.3008
16.5956
15.89
15.1842
14.4783
13.7723
13.0663
12.3603
11.6542
10.9481
10.2419
9.53565
8.82939
8.1231
7.41679
6.71046
6.00412
5.29777
4.59141
3.88505
3.17868
2.47231
1.76594
1.05957
0.35319
26.6057
26.2531
25.8173
25.3106
24.7481
24.1438
23.5091
22.8524
22.1802
21.4971
20.8064
20.1105
19.411
18.7091
18.0055
17.3009
16.5956
15.8899
15.1841
14.4782
13.7723
13.0663
12.3603
11.6542
10.9481
10.2419
9.53566
8.8294
8.12311
7.4168
6.71047
6.00412
5.29777
4.59141
3.88505
3.17868
2.47231
1.76594
1.05956
0.35319
26.7837
26.3786
25.9052
25.3714
24.7898
24.1722
23.5282
22.8652
22.1886
21.5026
20.81
20.1128
19.4125
18.71
18.006
17.3011
16.5956
15.8899
15.1841
14.4782
13.7723
13.0663
12.3603
11.6542
10.9481
10.2419
9.53568
8.82942
8.12312
7.41681
6.71048
6.00413
5.29778
4.59142
3.88505
3.17868
2.47231
1.76594
1.05956
0.35319
26.9575
26.5058
25.9971
25.4369
24.8359
24.2042
23.5502
22.8801
22.1987
21.5094
20.8145
20.1158
19.4144
18.7112
18.0067
17.3015
16.5958
15.8899
15.184
14.4781
13.7722
13.0663
12.3603
11.6543
10.9481
10.242
9.53572
8.82945
8.12315
7.41682
6.71049
6.00414
5.29778
4.59142
3.88505
3.17868
2.47231
1.76594
1.05956
0.35319
27.1123
26.6218
26.0828
25.4991
24.8803
24.2356
23.572
22.8952
22.209
21.5163
20.8191
20.1189
19.4164
18.7125
18.0075
17.3019
16.596
15.89
15.184
14.4781
13.7723
13.0663
12.3604
11.6543
10.9482
10.242
9.53576
8.82948
8.12317
7.41684
6.7105
6.00415
5.29779
4.59142
3.88505
3.17868
2.47231
1.76594
1.05956
0.35319
27.2371
26.717
26.1541
25.5515
24.9182
24.2625
23.591
22.9083
22.218
21.5224
20.8232
20.1216
19.4183
18.7137
18.0083
17.3023
16.5961
15.89
15.184
14.4781
13.7723
13.0664
12.3604
11.6544
10.9482
10.242
9.53579
8.82951
8.12319
7.41686
6.71051
6.00416
5.29779
4.59143
3.88506
3.17869
2.47231
1.76594
1.05956
0.35319
27.3243
26.7842
26.2049
25.5892
24.9457
24.2823
23.6049
22.918
22.2247
21.527
20.8263
20.1237
19.4197
18.7146
18.0088
17.3026
16.5963
15.89
15.184
14.4781
13.7723
13.0664
12.3605
11.6544
10.9483
10.2421
9.53583
8.82954
8.12322
7.41688
6.71052
6.00417
5.2978
4.59143
3.88506
3.17869
2.47231
1.76594
1.05956
0.35319
27.369
26.8189
26.2313
25.6089
24.9601
24.2926
23.6123
22.9232
22.2282
21.5294
20.828
20.1249
19.4205
18.7152
18.0092
17.3028
16.5963
15.8901
15.184
14.4781
13.7723
13.0664
12.3605
11.6545
10.9483
10.2421
9.53585
8.82955
8.12323
7.41689
6.71053
6.00417
5.2978
4.59143
3.88506
3.17869
2.47231
1.76594
1.05956
0.35319
27.369
26.8189
26.2313
25.6089
24.9601
24.2927
23.6123
22.9232
22.2283
21.5294
20.828
20.1249
19.4205
18.7152
18.0092
17.3028
16.5964
15.8901
15.1841
14.4782
13.7723
13.0665
12.3605
11.6545
10.9483
10.2421
9.53587
8.82956
8.12324
7.41689
6.71054
6.00417
5.29781
4.59144
3.88506
3.17869
2.47231
1.76594
1.05956
0.35319
27.3243
26.7842
26.2049
25.5893
24.9457
24.2823
23.605
22.9181
22.2247
21.527
20.8264
20.1238
19.4198
18.7148
18.009
17.3028
16.5964
15.8902
15.1841
14.4782
13.7724
13.0665
12.3605
11.6545
10.9483
10.2421
9.53586
8.82956
8.12324
7.41689
6.71054
6.00417
5.29781
4.59144
3.88506
3.17869
2.47231
1.76594
1.05956
0.35319
27.2372
26.7171
26.1541
25.5515
24.9183
24.2626
23.5911
22.9084
22.2181
21.5225
20.8234
20.1218
19.4185
18.7139
18.0085
17.3025
16.5964
15.8902
15.1842
14.4783
13.7724
13.0665
12.3605
11.6545
10.9483
10.2421
9.53585
8.82955
8.12323
7.41689
6.71053
6.00417
5.29781
4.59143
3.88506
3.17869
2.47231
1.76594
1.05956
0.35319
27.1124
26.6219
26.0828
25.4991
24.8804
24.2357
23.5721
22.8953
22.2091
21.5164
20.8193
20.1191
19.4167
18.7128
18.0078
17.3022
16.5963
15.8903
15.1843
14.4784
13.7725
13.0665
12.3605
11.6545
10.9483
10.2421
9.53583
8.82954
8.12322
7.41688
6.71053
6.00417
5.2978
4.59143
3.88506
3.17869
2.47231
1.76594
1.05956
0.35319
26.9577
26.5059
25.9972
25.437
24.836
24.2043
23.5503
22.8803
22.1989
21.5096
20.8147
20.1161
19.4147
18.7116
18.0071
17.3019
16.5962
15.8903
15.1844
14.4785
13.7725
13.0666
12.3605
11.6544
10.9483
10.2421
9.53581
8.82952
8.1232
7.41687
6.71052
6.00416
5.2978
4.59143
3.88506
3.17869
2.47231
1.76594
1.05956
0.35319
26.7838
26.3787
25.9053
25.3716
24.79
24.1724
23.5284
22.8653
22.1889
21.5029
20.8103
20.1132
19.4129
18.7104
18.0064
17.3015
16.5961
15.8903
15.1845
14.4785
13.7726
13.0666
12.3605
11.6544
10.9483
10.242
9.53579
8.8295
8.12319
7.41686
6.71051
6.00416
5.29779
4.59143
3.88506
3.17868
2.47231
1.76594
1.05956
0.35319
26.6058
26.2532
25.8175
25.3107
24.7482
24.144
23.5092
22.8526
22.1804
21.4974
20.8067
20.1109
19.4114
18.7095
18.006
17.3013
16.596
15.8904
15.1845
14.4786
13.7726
13.0666
12.3605
11.6544
10.9482
10.242
9.53577
8.82949
8.12318
7.41685
6.7105
6.00415
5.29779
4.59142
3.88506
3.17868
2.47231
1.76594
1.05956
0.35319
26.444
26.1452
25.7458
25.2634
24.7172
24.1238
23.4962
22.8443
22.1752
21.4941
20.8047
20.1097
19.4107
18.7091
18.0058
17.3013
16.5961
15.8905
15.1846
14.4787
13.7727
13.0666
12.3605
11.6544
10.9482
10.242
9.53576
8.82948
8.12317
7.41684
6.7105
6.00415
5.29779
4.59142
3.88505
3.17868
2.47231
1.76594
1.05956
0.35319
26.3238
26.0741
25.7045
25.2399
24.7041
24.1167
23.4926
22.8426
22.1746
21.494
20.805
20.11
19.4111
18.7094
18.0061
17.3015
16.5963
15.8906
15.1847
14.4788
13.7727
13.0667
12.3606
11.6544
10.9482
10.242
9.53576
8.82948
8.12317
7.41684
6.7105
6.00415
5.29779
4.59142
3.88505
3.17868
2.47231
1.76594
1.05956
0.35319
26.2731
26.0632
25.7105
25.2515
24.7164
24.1277
23.5017
22.8498
22.1801
21.4982
20.808
20.1122
19.4127
18.7106
18.0069
17.3021
16.5966
15.8909
15.1849
14.4789
13.7728
13.0667
12.3606
11.6544
10.9483
10.242
9.53578
8.82949
8.12318
7.41685
6.71051
6.00415
5.29779
4.59142
3.88506
3.17868
2.47231
1.76594
1.05956
0.353189
26.3931
26.1437
25.7642
25.2872
24.74
24.1433
23.5119
22.8565
22.1844
21.5009
20.8096
20.1131
19.4131
18.7106
18.0067
17.3017
16.5962
15.8904
15.1844
14.4784
13.7724
13.0664
12.3604
11.6542
10.9481
10.2419
9.53568
8.82942
8.12313
7.41681
6.71048
6.00413
5.29778
4.59142
3.88505
3.17869
2.47231
1.76594
1.05957
0.353191
26.4439
26.1451
25.7457
25.2633
24.7171
24.1237
23.4961
22.8441
22.1749
21.4938
20.8044
20.1093
19.4103
18.7087
18.0053
17.3008
16.5956
15.89
15.1842
14.4783
13.7723
13.0663
12.3603
11.6542
10.9481
10.2419
9.53565
8.82939
8.1231
7.41679
6.71046
6.00412
5.29777
4.59141
3.88505
3.17868
2.47231
1.76594
1.05957
0.35319
26.5645
26.2112
25.7792
25.2785
24.7226
24.1243
23.4945
22.8417
22.1724
21.4915
20.8025
20.1077
19.4091
18.7077
18.0046
17.3003
16.5952
15.8897
15.184
14.4781
13.7722
13.0663
12.3602
11.6542
10.948
10.2418
9.53563
8.82938
8.12309
7.41678
6.71046
6.00412
5.29777
4.59141
3.88505
3.17868
2.47231
1.76594
1.05957
0.353191
26.73
26.3179
25.8467
25.3207
24.7486
24.14
23.5038
22.847
22.1753
21.493
20.8031
20.1079
19.4091
18.7076
18.0044
17.3
16.595
15.8895
15.1838
14.478
13.7721
13.0662
12.3602
11.6541
10.948
10.2418
9.53563
8.82938
8.12309
7.41678
6.71046
6.00412
5.29776
4.59141
3.88504
3.17868
2.47231
1.76594
1.05956
0.353191
26.914
26.4444
25.9328
25.3787
24.7872
24.1655
23.5203
22.8577
22.1821
21.4972
20.8057
20.1095
19.41
18.7081
18.0046
17.3001
16.5949
15.8894
15.1837
14.4779
13.7721
13.0662
12.3602
11.6542
10.948
10.2419
9.53564
8.82939
8.1231
7.41679
6.71046
6.00412
5.29777
4.59141
3.88505
3.17868
2.47231
1.76594
1.05956
0.353191
27.0947
26.5737
26.0243
25.4426
24.8313
24.1955
23.5406
22.8711
22.191
21.503
20.8094
20.1118
19.4114
18.709
18.0051
17.3003
16.5949
15.8893
15.1836
14.4779
13.7721
13.0662
12.3602
11.6542
10.9481
10.2419
9.53567
8.82941
8.12311
7.4168
6.71047
6.00412
5.29777
4.59141
3.88505
3.17868
2.47231
1.76594
1.05956
0.353191
27.256
26.6921
26.1102
25.504
24.8746
24.2257
23.5613
22.8852
22.2003
21.5092
20.8135
20.1145
19.4132
18.7101
18.0057
17.3005
16.595
15.8892
15.1835
14.4778
13.7721
13.0662
12.3603
11.6542
10.9481
10.2419
9.5357
8.82943
8.12313
7.41681
6.71048
6.00413
5.29778
4.59141
3.88505
3.17868
2.47231
1.76594
1.05956
0.353191
27.3861
26.7895
26.182
25.5561
24.9118
24.2519
23.5795
22.8976
22.2088
21.5148
20.8172
20.117
19.4148
18.7111
18.0063
17.3008
16.595
15.8892
15.1835
14.4778
13.7721
13.0662
12.3603
11.6543
10.9482
10.242
9.53574
8.82946
8.12315
7.41683
6.71049
6.00414
5.29778
4.59142
3.88505
3.17868
2.47231
1.76594
1.05957
0.35319
27.477
26.8583
26.2333
25.5937
24.939
24.2711
23.593
22.9069
22.2151
21.5191
20.8201
20.1189
19.4161
18.712
18.0068
17.3011
16.5951
15.8892
15.1834
14.4778
13.7721
13.0663
12.3604
11.6543
10.9482
10.242
9.53576
8.82948
8.12317
7.41684
6.7105
6.00415
5.29779
4.59142
3.88505
3.17868
2.47231
1.76594
1.05957
0.35319
27.5237
26.8939
26.2599
25.6134
24.9532
24.2813
23.6001
22.9119
22.2185
21.5214
20.8216
20.12
19.4169
18.7125
18.0071
17.3012
16.5951
15.8892
15.1834
14.4778
13.7721
13.0663
12.3604
11.6544
10.9482
10.242
9.53579
8.8295
8.12319
7.41685
6.71051
6.00415
5.29779
4.59142
3.88506
3.17869
2.47231
1.76594
1.05956
0.35319
27.5237
26.8939
26.26
25.6134
24.9532
24.2813
23.6001
22.9119
22.2185
21.5214
20.8217
20.12
19.4169
18.7125
18.0072
17.3013
16.5952
15.8892
15.1835
14.4778
13.7722
13.0663
12.3604
11.6544
10.9483
10.2421
9.5358
8.82951
8.12319
7.41686
6.71051
6.00415
5.29779
4.59143
3.88506
3.17869
2.47232
1.76594
1.05956
0.35319
27.4771
26.8584
26.2333
25.5937
24.939
24.2712
23.593
22.907
22.2152
21.5192
20.8202
20.119
19.4163
18.7121
18.007
17.3012
16.5952
15.8893
15.1836
14.4779
13.7722
13.0664
12.3604
11.6544
10.9483
10.2421
9.5358
8.82951
8.12319
7.41686
6.71051
6.00416
5.29779
4.59143
3.88506
3.17869
2.47232
1.76594
1.05956
0.353189
27.3862
26.7896
26.182
25.5561
24.9119
24.252
23.5796
22.8977
22.2089
21.5149
20.8174
20.1172
19.415
18.7114
18.0066
17.3011
16.5953
15.8894
15.1837
14.478
13.7722
13.0664
12.3604
11.6544
10.9482
10.242
9.53579
8.8295
8.12319
7.41686
6.71051
6.00415
5.29779
4.59143
3.88506
3.17869
2.47232
1.76594
1.05956
0.353189
27.2561
26.6922
26.1103
25.5041
24.8747
24.2258
23.5614
22.8853
22.2005
21.5093
20.8137
20.1148
19.4135
18.7104
18.006
17.3009
16.5953
15.8896
15.1838
14.4781
13.7723
13.0664
12.3604
11.6544
10.9482
10.242
9.53578
8.82949
8.12318
7.41685
6.71051
6.00415
5.29779
4.59142
3.88506
3.17869
2.47231
1.76594
1.05956
0.353189
27.0948
26.5738
26.0244
25.4427
24.8314
24.1957
23.5407
22.8713
22.1911
21.5032
20.8096
20.1121
19.4118
18.7093
18.0055
17.3007
16.5953
15.8897
15.184
14.4782
13.7723
13.0664
12.3604
11.6544
10.9482
10.242
9.53576
8.82948
8.12317
7.41684
6.7105
6.00415
5.29779
4.59142
3.88505
3.17868
2.47231
1.76594
1.05956
0.353189
26.9141
26.4445
25.9329
25.3788
24.7873
24.1656
23.5205
22.8578
22.1823
21.4974
20.806
20.1098
19.4103
18.7085
18.005
17.3005
16.5953
15.8898
15.1841
14.4783
13.7724
13.0665
12.3604
11.6543
10.9482
10.242
9.53575
8.82947
8.12316
7.41684
6.7105
6.00414
5.29779
4.59142
3.88505
3.17868
2.47231
1.76594
1.05956
0.353189
26.7302
26.318
25.8468
25.3208
24.7487
24.1402
23.504
22.8472
22.1756
21.4933
20.8034
20.1083
19.4094
18.708
18.0048
17.3005
16.5954
15.89
15.1842
14.4784
13.7725
13.0665
12.3605
11.6543
10.9482
10.242
9.53574
8.82946
8.12316
7.41683
6.71049
6.00414
5.29778
4.59142
3.88505
3.17868
2.47231
1.76594
1.05956
0.353189
26.5646
26.2114
25.7793
25.2787
24.7228
24.1245
23.4947
22.8419
22.1726
21.4918
20.8028
20.1081
19.4095
18.7082
18.0051
17.3007
16.5957
15.8902
15.1844
14.4785
13.7726
13.0666
12.3605
11.6544
10.9482
10.242
9.53574
8.82946
8.12316
7.41683
6.71049
6.00414
5.29778
4.59142
3.88505
3.17868
2.47231
1.76594
1.05956
0.353188
26.444
26.1452
25.7458
25.2634
24.7172
24.1238
23.4962
22.8443
22.1752
21.4941
20.8047
20.1097
19.4107
18.7091
18.0058
17.3013
16.5961
15.8905
15.1846
14.4787
13.7727
13.0666
12.3605
11.6544
10.9482
10.242
9.53576
8.82947
8.12317
7.41684
6.7105
6.00414
5.29779
4.59142
3.88505
3.17868
2.47231
1.76594
1.05956
0.353188
26.3932
26.1438
25.7643
25.2873
24.7401
24.1434
23.5121
22.8566
22.1846
21.5011
20.8099
20.1135
19.4135
18.7111
18.0071
17.3022
16.5967
15.8909
15.1849
14.4788
13.7728
13.0667
12.3606
11.6545
10.9483
10.242
9.53579
8.8295
8.12318
7.41685
6.71051
6.00415
5.29779
4.59142
3.88505
3.17868
2.47231
1.76594
1.05956
0.353188
26.5491
26.2552
25.8424
25.3414
24.7773
24.1688
23.5293
22.8682
22.1922
21.5061
20.8131
20.1154
19.4146
18.7116
18.0072
17.302
16.5963
15.8904
15.1844
14.4784
13.7724
13.0664
12.3604
11.6543
10.9481
10.2419
9.53571
8.82944
8.12314
7.41682
6.71049
6.00414
5.29778
4.59142
3.88506
3.17869
2.47232
1.76594
1.05957
0.353192
26.6057
26.2531
25.8173
25.3106
24.7481
24.1438
23.5091
22.8524
22.1802
21.4971
20.8064
20.1105
19.411
18.7091
18.0055
17.3009
16.5956
15.8899
15.1841
14.4782
13.7723
13.0663
12.3603
11.6542
10.9481
10.2419
9.53566
8.8294
8.12311
7.4168
6.71047
6.00412
5.29777
4.59141
3.88505
3.17868
2.47231
1.76594
1.05956
0.35319
26.73
26.3179
25.8467
25.3207
24.7486
24.14
23.5038
22.847
22.1753
21.493
20.8031
20.1079
19.4091
18.7076
18.0044
17.3
16.595
15.8895
15.1838
14.478
13.7721
13.0662
12.3602
11.6541
10.948
10.2418
9.53563
8.82938
8.12309
7.41678
6.71046
6.00412
5.29776
4.59141
3.88504
3.17868