# vtk DataFile Version 2.0
I need something to put here
ASCII

DATASET STRUCTURED_GRID
DIMENSIONS 41 21 21
POINTS 18081 float
0.000000 0.000000 0.000000
0.100000 0.000000 0.000000
0.200000 0.000000 0.000000
0.300000 0.000000 0.000000
0.400000 0.000000 0.000000
0.500000 0.000000 0.000000
0.600000 0.000000 0.000000
0.700000 0.000000 0.000000
0.800000 0.000000 0.000000
0.900000 0.000000 0.000000
1.000000 0.000000 0.000000
1.100000 0.000000 0.000000
1.200000 0.000000 0.000000
1.300000 0.000000 0.000000
1.400000 0.000000 0.000000
1.500000 0.000000 0.000000
1.600000 0.000000 0.000000
1.700000 0.000000 0.000000
1.800000 0.000000 0.000000
1.900000 0.000000 0.000000
2.000000 0.000000 0.000000
2.100000 0.000000 0.000000
2.200000 0.000000 0.000000
2.300000 0.000000 0.000000
2.400000 0.000000 0.000000
2.500000 0.000000 0.000000
2.600000 0.000000 0.000000
2.700000 0.000000 0.000000
2.800000 0.000000 0.000000
2.900000 0.000000 0.000000
3.000000 0.000000 0.000000
3.100000 0.000000 0.000000
3.200000 0.000000 0.000000
3.300000 0.000000 0.000000
3.400000 0.000000 0.000000
3.500000 0.000000 0.000000
3.600000 0.000000 0.000000
3.700000 0.000000 0.000000
3.800000 0.000000 0.000000
3.900000 0.000000 0.000000
4.000000 0.000000 0.000000
0.000000 0.100000 0.000000
0.100000 0.100000 0.000000
0.200000 0.100000 0.000000
0.300000 0.100000 0.000000
0.400000 0.100000 0.000000
0.500000 0.100000 0.000000
0.600000 0.100000 0.000000
0.700000 0.100000 0.000000
0.800000 0.100000 0.000000
0.900000 0.100000 0.000000
1.000000 0.100000 0.000000
1.100000 0.100000 0.000000
1.200000 0.100000 0.000000
1.300000 0.100000 0.000000
1.400000 0.100000 0.000000
1.500000 0.100000 0.000000
1.600000 0.100000 0.000000
1.700000 0.100000 0.000000
1.800000 0.100000 0.000000
1.900000 0.100000 0.000000
2.000000 0.100000 0.000000
2.100000 0.100000 0.000000
2.200000 0.100000 0.000000
2.300000 0.100000 0.000000
2.400000 0.100000 0.000000
2.500000 0.100000 0.000000
2.600000 0.100000 0.000000
2.700000 0.100000 0.000000
2.800000 0.100000 0.000000
2.900000 0.100000 0.000000
3.000000 0.100000 0.000000
3.100000 0.100000 0.000000
3.200000 0.100000 0.000000
3.300000 0.100000 0.000000
3.400000 0.100000 0.000000
3.500000 0.100000 0.000000
3.600000 0.100000 0.000000
3.700000 0.100000 0.000000
3.800000 0.100000 0.000000
3.900000 0.100000 0.000000
4.000000 0.100000 0.000000
0.000000 0.200000 0.000000
0.100000 0.200000 0.000000
0.200000 0.200000 0.000000
0.300000 0.200000 0.000000
0.400000 0.200000 0.000000
0.500000 0.200000 0.000000
0.600000 0.200000 0.000000
0.700000 0.200000 0.000000
0.800000 0.200000 0.000000
0.900000 0.200000 0.000000
1.000000 0.200000 0.000000
1.100000 0.200000 0.000000
1.200000 0.200000 0.000000
1.300000 0.200000 0.000000
1.400000 0.200000 0.000000
1.500000 0.200000 0.000000
1.600000 0.200000 0.000000
1.700000 0.200000 0.000000
1.800000 0.200000 0.000000
1.900000 0.200000 0.000000
2.000000 0.200000 0.000000
2.100000 0.200000 0.000000
2.200000 0.200000 0.000000
2.300000 0.200000 0.000000
2.400000 0.200000 0.000000
2.500000 0.200000 0.000000
2.600000 0.200000 0.000000
2.700000 0.200000 0.000000
2.800000 0.200000 0.000000
2.900000 0.200000 0.000000
3.000000 0.200000 0.000000
3.100000 0.200000 0.000000
3.200000 0.200000 0.000000
3.300000 0.200000 0.000000
3.400000 0.200000 0.000000
3.500000 0.200000 0.000000
3.600000 0.200000 0.000000
3.700000 0.200000 0.000000
3.800000 0.200000 0.000000
3.900000 0.200000 0.000000
4.000000 0.200000 0.000000
0.000000 0.300000 0.000000
0.100000 0.300000 0.000000
0.200000 0.300000 0.000000
0.300000 0.300000 0.000000
0.400000 0.300000 0.000000
0.500000 0.300000 0.000000
0.600000 0.300000 0.000000
0.700000 0.300000 0.000000
0.800000 0.300000 0.000000
0.900000 0.300000 0.000000
1.000000 0.300000 0.000000
1.100000 0.300000 0.000000
1.200000 0.300000 0.000000
1.300000 0.300000 0.000000
1.400000 0.300000 0.000000
1.500000 0.300000 0.000000
1.600000 0.300000 0.000000
1.700000 0.300000 0.000000
1.800000 0.300000 0.000000
1.900000 0.300000 0.000000
2.000000 0.300000 0.000000
2.100000 0.300000 0.000000
2.200000 0.300000 0.000000
2.300000 0.300000 0.000000
2.400000 0.300000 0.000000
2.500000 0.300000 0.000000
2.600000 0.300000 0.000000
2.700000 0.300000 0.000000
2.800000 0.300000 0.000000
2.900000 0.300000 0.000000
3.000000 0.300000 0.000000
3.100000 0.300000 0.000000
3.200000 0.300000 0.000000
3.300000 0.300000 0.000000
3.400000 0.300000 0.000000
3.500000 0.300000 0.000000
3.600000 0.300000 0.000000
3.700000 0.300000 0.000000
3.800000 0.300000 0.000000
3.900000 0.300000 0.000000
4.000000 0.300000 0.000000
0.000000 0.400000 0.000000
0.100000 0.400000 0.000000
0.200000 0.400000 0.000000
0.300000 0.400000 0.000000
0.400000 0.400000 0.000000
0.500000 0.400000 0.000000
0.600000 0.400000 0.000000
0.700000 0.400000 0.000000
0.800000 0.400000 0.000000
0.900000 0.400000 0.000000
1.000000 0.400000 0.000000
1.100000 0.400000 0.000000
1.200000 0.400000 0.000000
1.300000 0.400000 0.000000
1.400000 0.400000 0.000000
1.500000 0.400000 0.000000
1.600000 0.400000 0.000000
1.700000 0.400000 0.000000
1.800000 0.400000 0.000000
1.900000 0.400000 0.000000
2.000000 0.400000 0.000000
2.100000 0.400000 0.000000
2.200000 0.400000 0.000000
2.300000 0.400000 0.000000
2.400000 0.400000 0.000000
2.500000 0.400000 0.000000
2.600000 0.400000 0.000000
2.700000 0.400000 0.000000
2.800000 0.400000 0.000000
2.900000 0.400000 0.000000
3.000000 0.400000 0.000000
3.100000 0.400000 0.000000
3.200000 0.400000 0.000000
3.300000 0.400000 0.000000
3.400000 0.400000 0.000000
3.500000 0.400000 0.000000
3.600000 0.400000 0.000000
3.700000 0.400000 0.000000
3.800000 0.400000 0.000000
3.900000 0.400000 0.000000
4.000000 0.400000 0.000000
0.000000 0.500000 0.000000
0.100000 0.500000 0.000000
0.200000 0.500000 0.000000
0.300000 0.500000 0.000000
0.400000 0.500000 0.000000
0.500000 0.500000 0.000000
0.600000 0.500000 0.000000
0.700000 0.500000 0.000000
0.800000 0.500000 0.000000
0.900000 0.500000 0.000000
1.000000 0.500000 0.000000
1.100000 0.500000 0.000000
1.200000 0.500000 0.000000
1.300000 0.500000 0.000000
1.400000 0.500000 0.000000
1.500000 0.500000 0.000000
1.600000 0.500000 0.000000
1.700000 0.500000 0.000000
1.800000 0.500000 0.000000
1.900000 0.500000 0.000000
2.000000 0.500000 0.000000
2.100000 0.500000 0.000000
2.200000 0.500000 0.000000
2.300000 0.500000 0.000000
2.400000 0.500000 0.000000
2.500000 0.500000 0.000000
2.600000 0.500000 0.000000
2.700000 0.500000 0.000000
2.800000 0.500000 0.000000
2.900000 0.500000 0.000000
3.000000 0.500000 0.000000
3.100000 0.500000 0.000000
3.200000 0.500000 0.000000
3.300000 0.500000 0.000000
3.400000 0.500000 0.000000
3.500000 0.500000 0.000000
3.600000 0.500000 0.000000
3.700000 0.500000 0.000000
3.800000 0.500000 0.000000
3.900000 0.500000 0.000000
4.000000 0.500000 0.000000
0.000000 0.600000 0.000000
0.100000 0.600000 0.000000
0.200000 0.600000 0.000000
0.300000 0.600000 0.000000
0.400000 0.600000 0.000000
0.500000 0.600000 0.000000
0.600000 0.600000 0.000000
0.700000 0.600000 0.000000
0.800000 0.600000 0.000000
0.900000 0.600000 0.000000
1.000000 0.600000 0.000000
1.100000 0.600000 0.000000
1.200000 0.600000 0.000000
1.300000 0.600000 0.000000
1.400000 0.600000 0.000000
1.500000 0.600000 0.000000
1.600000 0.600000 0.000000
1.700000 0.600000 0.000000
1.800000 0.600000 0.000000
1.900000 0.600000 0.000000
2.000000 0.600000 0.000000
2.100000 0.600000 0.000000
2.200000 0.600000 0.000000
2.300000 0.600000 0.000000
2.400000 0.600000 0.000000
2.500000 0.600000 0.000000
2.600000 0.600000 0.000000
2.700000 0.600000 0.000000
2.800000 0.600000 0.000000
2.900000 0.600000 0.000000
3.000000 0.600000 0.000000
3.100000 0.600000 0.000000
3.200000 0.600000 0.000000
3.300000 0.600000 0.000000
3.400000 0.600000 0.000000
3.500000 0.600000 0.000000
3.600000 0.600000 0.000000
3.700000 0.600000 0.000000
3.800000 0.600000 0.000000
3.900000 0.600000 0.000000
4.000000 0.600000 0.000000
0.000000 0.700000 0.000000
0.100000 0.700000 0.000000
0.200000 0.700000 0.000000
0.300000 0.700000 0.000000
0.400000 0.700000 0.000000
0.500000 0.700000 0.000000
0.600000 0.700000 0.000000
0.700000 0.700000 0.000000
0.800000 0.700000 0.000000
0.900000 0.700000 0.000000
1.000000 0.700000 0.000000
1.100000 0.700000 0.000000
1.200000 0.700000 0.000000
1.300000 0.700000 0.000000
1.400000 0.700000 0.000000
1.500000 0.700000 0.000000
1.600000 0.700000 0.000000
1.700000 0.700000 0.000000
1.800000 0.700000 0.000000
1.900000 0.700000 0.000000
2.000000 0.700000 0.000000
2.100000 0.700000 0.000000
2.200000 0.700000 0.000000
2.300000 0.700000 0.000000
2.400000 0.700000 0.000000
2.500000 0.700000 0.000000
2.600000 0.700000 0.000000
2.700000 0.700000 0.000000
2.800000 0.700000 0.000000
2.900000 0.700000 0.000000
3.000000 0.700000 0.000000
3.100000 0.700000 0.000000
3.200000 0.700000 0.000000
3.300000 0.700000 0.000000
3.400000 0.700000 0.000000
3.500000 0.700000 0.000000
3.600000 0.700000 0.000000
3.700000 0.700000 0.000000
3.800000 0.700000 0.000000
3.900000 0.700000 0.000000
4.000000 0.700000 0.000000
0.000000 0.800000 0.000000
0.100000 0.800000 0.000000
0.200000 0.800000 0.000000
0.300000 0.800000 0.000000
0.400000 0.800000 0.000000
0.500000 0.800000 0.000000
0.600000 0.800000 0.000000
0.700000 0.800000 0.000000
0.800000 0.800000 0.000000
0.900000 0.800000 0.000000
1.000000 0.800000 0.000000
1.100000 0.800000 0.000000
1.200000 0.800000 0.000000
1.300000 0.800000 0.000000
1.400000 0.800000 0.000000
1.500000 0.800000 0.000000
1.600000 0.800000 0.000000
1.700000 0.800000 0.000000
1.800000 0.800000 0.000000
1.900000 0.800000 0.000000
2.000000 0.800000 0.000000
2.100000 0.800000 0.000000
2.200000 0.800000 0.000000
2.300000 0.800000 0.000000
2.400000 0.800000 0.000000
2.500000 0.800000 0.000000
2.600000 0.800000 0.000000
2.700000 0.800000 0.000000
2.800000 0.800000 0.000000
2.900000 0.800000 0.000000
3.000000 0.800000 0.000000
3.100000 0.800000 0.000000
3.200000 0.800000 0.000000
3.300000 0.800000 0.000000
3.400000 0.800000 0.000000
3.500000 0.800000 0.000000
3.600000 0.800000 0.000000
[...]
CELL_DATA 16000
SCALARS pressure float 1
LOOKUP_TABLE default
26.2146
26.0319
25.6938
25.2427
24.7118
24.1254
23.5006
22.8493
22.1799
21.4981
20.8079
20.1121
19.4125
18.7104
18.0066
17.3018
16.5964
15.8907
15.1848
14.4788
13.7728
13.0667
12.3606
11.6544
10.9483
10.242
9.53579
8.8295
8.12319
7.41686
6.71051
6.00416
5.2978
4.59143
3.88506
3.17869
2.47231
1.76594
1.05956
0.353188
26.2731
26.0632
25.7105
25.2515
24.7164
24.1276
23.5016
22.8497
22.1799
21.498
20.8077
20.1119
19.4123
18.7102
18.0065
17.3017
16.5964
15.8906
15.1847
14.4787
13.7727
13.0667
12.3606
11.6544
10.9483
10.242
9.53579
8.8295
8.12319
7.41686
6.71051
6.00416
5.29779
4.59143
3.88506
3.17869
2.47231
1.76594
1.05956
0.353188
26.3932
26.1438
25.7643
25.2873
24.7401
24.1434
23.512
22.8565
22.1844
21.5009
20.8096
20.1131
19.4131
18.7107
18.0068
17.3019
16.5964
15.8906
15.1847
14.4787
13.7727
13.0667
12.3606
11.6545
10.9483
10.2421
9.5358
8.82951
8.1232
7.41686
6.71052
6.00416
5.2978
4.59143
3.88506
3.17869
2.47231
1.76594
1.05956
0.353188
26.5492
26.2553
25.8425
25.3415
24.7775
24.1689
23.5294
22.8683
22.1923
21.5062
20.8131
20.1154
19.4146
18.7116
18.0073
17.3022
16.5965
15.8907
15.1847
14.4787
13.7727
13.0667
12.3606
11.6545
10.9483
10.2421
9.53582
8.82953
8.12321
7.41687
6.71052
6.00416
5.2978
4.59143
3.88506
3.17869
2.47231
1.76594
1.05956
0.353188
26.7188
26.3815
25.9338
25.4064
24.823
24.2007
23.5513
22.8833
22.2025
21.513
20.8177
20.1185
19.4166
18.7129
18.0081
17.3026
16.5968
15.8907
15.1847
14.4787
13.7727
13.0667
12.3607
11.6545
10.9484
10.2421
9.53586
8.82956
8.12323
7.41689
6.71053
6.00417
5.2978
4.59143
3.88506
3.17869
2.47231
1.76594
1.05956
0.353188
26.8842
26.508
26.0274
25.4742
24.8714
24.2348
23.575
22.8997
22.2137
21.5206
20.8228
20.1219
19.4189
18.7144
18.009
17.3031
16.597
15.8908
15.1847
14.4787
13.7728
13.0668
12.3607
11.6546
10.9484
10.2422
9.5359
8.82959
8.12325
7.4169
6.71054
6.00418
5.29781
4.59144
3.88506
3.17869
2.47231
1.76594
1.05956
0.353187
27.0316
26.6231
26.114
25.5378
24.9173
24.2674
23.598
22.9156
22.2247
21.5281
20.8279
20.1253
19.4211
18.7159
18.0099
17.3036
16.5972
15.8909
15.1847
14.4787
13.7728
13.0668
12.3608
11.6547
10.9485
10.2422
9.53595
8.82962
8.12328
7.41692
6.71056
6.00419
5.29781
4.59144
3.88506
3.17869
2.47231
1.76594
1.05956
0.353186
27.1505
26.7173
26.1858
25.5911
24.9561
24.2953
23.6177
22.9293
22.2341
21.5346
20.8323
20.1283
19.4231
18.7172
18.0107
17.304
16.5974
15.8909
15.1847
14.4787
13.7728
13.0669
12.3609
11.6547
10.9485
10.2423
9.53599
8.82965
8.1233
7.41694
6.71057
6.00419
5.29782
4.59144
3.88507
3.17869
2.47231
1.76594
1.05956
0.353185
27.2337
26.7838
26.2369
25.6294
24.9842
24.3155
23.632
22.9394
22.2411
21.5394
20.8356
20.1305
19.4246
18.7182
18.0113
17.3043
16.5975
15.8909
15.1847
14.4787
13.7728
13.0669
12.3609
11.6548
10.9486
10.2423
9.53602
8.82968
8.12332
7.41695
6.71058
6.0042
5.29782
4.59144
3.88507
3.17869
2.47231
1.76594
1.05956
0.353185
27.2764
26.8181
26.2635
25.6494
24.9989
24.3261
23.6396
22.9447
22.2448
21.5419
20.8373
20.1317
19.4255
18.7187
18.0117
17.3045
16.5975
15.8909
15.1847
14.4787
13.7728
13.0669
12.3609
11.6548
10.9486
10.2423
9.53603
8.82969
8.12333
7.41696
6.71058
6.0042
5.29782
4.59145
3.88507
3.17869
2.47231
1.76594
1.05956
0.353184
27.2764
26.8181
26.2635
25.6494
24.9989
24.3261
23.6396
22.9447
22.2448
21.5419
20.8373
20.1317
19.4255
18.7187
18.0117
17.3045
16.5976
15.8909
15.1847
14.4787
13.7728
13.0669
12.3609
11.6548
10.9486
10.2423
9.53603
8.82969
8.12333
7.41696
6.71058
6.0042
5.29782
4.59145
3.88507
3.17869
2.47231
1.76594
1.05956
0.353183
27.2337
26.7838
26.237
25.6294
24.9842
24.3155
23.6321
22.9394
22.2411
21.5394
20.8356
20.1306
19.4247
18.7182
18.0114
17.3044
16.5975
15.8909
15.1847
14.4787
13.7728
13.0669
12.3609
11.6548
10.9486
10.2423
9.53601
8.82967
8.12332
7.41695
6.71057
6.0042
5.29782
4.59144
3.88507
3.17869
2.47231
1.76594
1.05956
0.353183
27.1505
26.7173
26.1858
25.5912
24.9562
24.2953
23.6177
22.9294
22.2342
21.5346
20.8324
20.1284
19.4232
18.7173
18.0108
17.3041
16.5974
15.8909
15.1847
14.4787
13.7728
13.0669
12.3608
11.6547
10.9485
10.2423
9.53598
8.82965
8.1233
7.41694
6.71057
6.00419
5.29782
4.59144
3.88506
3.17869
2.47231
1.76594
1.05956
0.353182
27.0316
26.6231
26.114
25.5379
24.9174
24.2675
23.5981
22.9157
22.2247
21.5282
20.828
20.1254
19.4212
18.716
18.01
17.3037
16.5972
15.8909
15.1848
14.4787
13.7728
13.0668
12.3608
11.6547
10.9485
10.2422
9.53594
8.82962
8.12327
7.41692
6.71055
6.00418
5.29781
4.59144
3.88506
3.17869
2.47231
1.76594
1.05956
0.353182
26.8843
26.5081
26.0275
25.4743
24.8715
24.2348
23.5751
22.8997
22.2138
21.5207
20.8229
20.122
19.419
18.7145
18.0091
17.3032
16.597
15.8909
15.1848
14.4787
13.7728
13.0668
12.3607
11.6546
10.9484
10.2422
9.53589
8.82958
8.12325
7.4169
6.71054
6.00418
5.29781
4.59143
3.88506
3.17869
2.47231
1.76594
1.05956
0.353183
26.7189
26.3815
25.9338
25.4065
24.8231
24.2007
23.5514
22.8833
22.2026
21.5131
20.8178
20.1186
19.4167
18.713
18.0082
17.3027
16.5968
15.8908
15.1848
14.4787
13.7727
13.0667
12.3607
11.6545
10.9483
10.2421
9.53585
8.82955
8.12322
7.41688
6.71053
6.00417
5.2978
4.59143
3.88506
3.17869
2.47231
1.76594
1.05956
0.353183
26.5493
26.2554
25.8426
25.3416
24.7775
24.169
23.5295
22.8684
22.1924
21.5063
20.8132
20.1155
19.4147
18.7117
18.0074
17.3023
16.5966
15.8907
15.1847
14.4787
13.7727
13.0667
12.3606
11.6545
10.9483
10.2421
9.53581
8.82952
8.1232
7.41687
6.71052
6.00416
5.2978
4.59143
3.88506
3.17868
2.47231
1.76594
1.05956
0.353184
26.3933
26.1439
25.7644
25.2874
24.7402
24.1435
23.5121
22.8566
22.1845
21.501
20.8097
20.1132
19.4132
18.7108
18.0069
17.3019
16.5965
15.8907
15.1847
14.4788
13.7727
13.0667
12.3606
11.6544
10.9483
10.242
9.53579
8.8295
8.12319
7.41686
6.71051
6.00416
5.29779
4.59143
3.88506
3.17868
2.47231
1.76594
1.05956
0.353185
26.2732
26.0632
25.7106
25.2516
24.7164
24.1277
23.5017
22.8498
22.18
21.4981
20.8079
20.112
19.4124
18.7103
18.0066
17.3018
16.5964
15.8907
15.1848
14.4788
13.7727
13.0667
12.3606
11.6544
10.9483
10.242
9.53578
8.8295
8.12318
7.41685
6.71051
6.00415
5.29779
4.59143
3.88506
3.17869
2.47231
1.76594
1.05956
0.353186
26.2146
26.0319
25.6939
25.2427
24.7118
24.1254
23.5006
22.8494
22.18
21.4982
20.808
20.1122
19.4126
18.7105
18.0067
17.3019
16.5965
15.8907
15.1848
14.4788
13.7728
13.0667
12.3606
11.6544
10.9483
10.242
9.53578
8.8295
8.12319
7.41686
6.71051
6.00416
5.29779
4.59143
3.88506
3.17869
2.47231
1.76594
1.05956
0.353187
26.2731
26.0632
25.7105
25.2515
24.7164
24.1276
23.5016
22.8497
22.1799
21.498
20.8077
20.1119
19.4123
18.7102
18.0065
17.3017
16.5964
15.8906
15.1847
14.4787
13.7727
13.0667
12.3606
11.6544
10.9483
10.242
9.53579
8.8295
8.12319
7.41686
6.71051
6.00416
5.29779
4.59143
3.88506
3.17869
2.47231
1.76594
1.05956
0.353188
26.3238
26.0741
25.7045
25.2398
24.7041
24.1167
23.4925
22.8425
22.1744
21.4938
20.8047
20.1097
19.4107
18.7091
18.0057
17.3012
16.596
15.8904
15.1846
14.4786
13.7726
13.0666
12.3605
11.6544
10.9482
10.242
9.53577
8.82949
8.12318
7.41685
6.71051
6.00415
5.29779
4.59143
3.88506
3.17868
2.47231
1.76594
1.05956
0.353189
26.444
26.1452
25.7458
25.2634
24.7172
24.1238
23.4962
22.8442
22.175
21.4939
20.8044
20.1093
19.4104
18.7088
18.0054
17.3009
16.5958
15.8902
15.1844
14.4786
13.7726
13.0666
12.3605
11.6544
10.9482
10.242
9.53577
8.82948
8.12317
7.41685
6.7105
6.00415
5.29779
4.59142
3.88505
3.17868
2.47231
1.76594
1.05956
0.353188
26.6058
26.2532
25.8175
25.3107
24.7482
24.1439
23.5092
22.8525
22.1803
21.4971
20.8065
20.1105
19.4111
18.7091
18.0056
17.301
16.5958
15.8902
15.1844
14.4785
13.7726
13.0666
12.3605
11.6544
10.9482
10.242
9.53578
8.82949
8.12318
7.41685
6.71051
6.00415
5.29779
4.59142
3.88506
3.17868
2.47231
1.76594
1.05956
0.353189
26.7838
26.3787
25.9054
25.3716
24.79
24.1723
23.5283
22.8652
22.1887
21.5027
20.81
20.1128
19.4125
18.71
18.0061
17.3012
16.5958
15.8902
15.1843
14.4785
13.7725
13.0666
12.3605
11.6544
10.9483
10.2421
9.5358
8.82951
8.12319
7.41686
6.71051
6.00416
5.29779
4.59143
3.88506
3.17868
2.47231
1.76594
1.05956
0.353189
26.9577
26.5059
25.9972
25.437
24.836
24.2043
23.5503
22.8802
22.1988
21.5094
20.8145
20.1157
19.4144
18.7112
18.0068
17.3016
16.596
15.8902
15.1843
14.4784
13.7725
13.0666
12.3606
11.6545
10.9483
10.2421
9.53583
8.82953
8.12321
7.41687
6.71052
6.00416
5.2978
4.59143
3.88506
3.17869
2.47231
1.76594
1.05957
0.353189
27.1125
26.622
26.0829
25.4992
24.8804
24.2357
23.5721
22.8952
22.209
21.5163
20.8191
20.1188
19.4164
18.7125
18.0076
17.302
16.5962
15.8902
15.1843
14.4784
13.7726
13.0666
12.3606
11.6545
10.9483
10.2421
9.53586
8.82956
8.12323
7.41689
6.71053
6.00417
5.2978
4.59143
3.88506
3.17869
2.47231
1.76594
1.05957
0.353189
27.2372
26.7171
26.1542
25.5516
24.9183
24.2627
23.5911
22.9084
22.218
21.5224
20.8232
20.1216
19.4182
18.7137
18.0083
17.3024
16.5963
15.8903
15.1843
14.4784
13.7726
13.0666
12.3606
11.6546
10.9484
10.2422
9.53589
8.82958
8.12325
7.4169
6.71054
6.00417
5.29781
4.59143
3.88506
3.17869
2.47231
1.76594
1.05957
0.353189
27.3244
26.7843
26.205
25.5894
24.9458
24.2824
23.605
22.9181
22.2247
21.5269
20.8263
20.1236
19.4196
18.7146
18.0088
17.3027
16.5964
15.8903
15.1843
14.4784
13.7726
13.0667
12.3607
11.6546
10.9484
10.2422
9.53591
8.8296
8.12326
7.41691
6.71055
6.00418
5.29781
4.59144
3.88506
3.17869
2.47232
1.76594
1.05957
0.353189
27.3691
26.8191
26.2315
25.6091
24.9603
24.2928
23.6124
22.9233
22.2283
21.5294
20.8279
20.1247
19.4203
18.715
18.0091
17.3028
16.5965
15.8903
15.1843
14.4784
13.7726
13.0667
12.3607
11.6546
10.9484
10.2422
9.53592
8.82961
8.12327
7.41691
6.71055
6.00418
5.29781
4.59144
3.88506
3.17869
2.47232
1.76594
1.05957
0.353189
27.3691
26.8191
26.2315
25.6091
24.9603
24.2928
23.6124
22.9233
22.2283
21.5294
20.8279
20.1248
19.4204
18.7151
18.0091
17.3028
16.5965
15.8903
15.1843
14.4784
13.7726
13.0667
12.3607
11.6546
10.9484
10.2422
9.53592
8.82961
8.12327
7.41691
6.71055
6.00418
5.29781
4.59144
3.88506
3.17869
2.47232
1.76594
1.05957
0.353189
27.3244
26.7844
26.2051
25.5894
24.9459
24.2824
23.605
22.9181
22.2247
21.527
20.8263
20.1237
19.4196
18.7146
18.0088
17.3027
16.5964
15.8903
15.1843
14.4784
13.7726
13.0667
12.3607
11.6546
10.9484
10.2422
9.53591
8.82959
8.12326
7.41691
6.71055
6.00418
5.29781
4.59144
3.88506
3.17869
2.47232
1.76594
1.05957
0.353189
27.2373
26.7172
26.1542
25.5517
24.9184
24.2627
23.5911
22.9084
22.2181
21.5224
20.8233
20.1216
19.4183
18.7137
18.0083
17.3024
16.5963
15.8903
15.1843
14.4784
13.7726
13.0666
12.3606
11.6545
10.9484
10.2422
9.53588
8.82958
8.12324
7.4169
6.71054
6.00417
5.2978
4.59143
3.88506
3.17869
2.47232
1.76594
1.05957
0.353189
27.1125
26.622
26.0829
25.4992
24.8805
24.2357
23.5722
22.8953
22.2091
21.5163
20.8192
20.1189
19.4165
18.7126
18.0076
17.3021
16.5962
15.8903
15.1843
14.4784
13.7726
13.0666
12.3606
11.6545
10.9483
10.2421
9.53585
8.82955
8.12322
7.41688
6.71053
6.00417
5.2978
4.59143
3.88506
3.17869
2.47231
1.76594
1.05957
0.353189
26.9577
26.506
25.9973
25.4371
24.836
24.2044
23.5504
22.8803
22.1989
21.5095
20.8146
20.1158
19.4145
18.7113
18.0069
17.3017
16.596
15.8902
15.1843
14.4785
13.7725
13.0666
12.3606
11.6545
10.9483
10.2421
9.53582
8.82952
8.1232
7.41687
6.71052
6.00416
5.2978
4.59143
3.88506
3.17869
2.47231
1.76594
1.05957
0.353188
26.7838
26.3788
25.9054
25.3716
24.79
24.1724
23.5284
22.8653
22.1888
21.5028
20.8101
20.1129
19.4126
18.7101
18.0062
17.3013
16.5959
15.8902
15.1844
14.4785
13.7725
13.0666
12.3605
11.6544
10.9483
10.242
9.53579
8.8295
8.12319
7.41685
6.71051
6.00415
5.29779
4.59143
3.88506
3.17869
2.47231
1.76594
1.05957
0.353188
26.6059
26.2532
25.8175
25.3108
24.7483
24.144
23.5093
22.8526
22.1804
21.4972
20.8066
20.1107
19.4112
18.7092
18.0057
17.3011
16.5958
15.8902
15.1844
14.4785
13.7726
13.0666
12.3605
11.6544
10.9482
10.242
9.53577
8.82948
8.12317
7.41685
6.7105
6.00415
5.29779
4.59142
3.88506
3.17868
2.47231
1.76594
1.05957
0.353188
26.444
26.1453
25.7459
25.2635
24.7173
24.1239
23.4962
22.8442
22.1751
21.494
20.8045
20.1094
19.4105
18.7089
18.0055
17.301
16.5958
15.8903
15.1845
14.4786
13.7726
13.0666
12.3605
11.6544
10.9482
10.242
9.53576
8.82948
8.12317
7.41684
6.7105
6.00415
5.29779
4.59142
3.88505
3.17868
2.47231
1.76594
1.05957
0.353187
26.3239
26.0742
25.7046
25.2399
24.7041
24.1167
23.4926
22.8426
22.1745
21.4939
20.8048
20.1098
19.4108
18.7092
18.0058
17.3012
16.596
15.8904
15.1846
14.4787
13.7727
13.0666
12.3605
11.6544
10.9482
10.242
9.53576
8.82948
8.12317
7.41684
6.7105
6.00415
5.29779
4.59142
3.88506
3.17868
2.47231
1.76594
1.05957
0.353187
26.2732
26.0632
25.7106
25.2516
24.7164
24.1277
23.5017
22.8498
22.18
21.4981
20.8078
20.112
19.4124
18.7103
18.0066
17.3018
16.5964
15.8907
15.1848
14.4788
13.7727
13.0667
12.3606
11.6544
10.9483
10.242
9.53578
8.8295
8.12318
7.41685
6.71051
6.00416
5.29779
4.59143
3.88506
3.17869
2.47231
1.76594
1.05956
0.353188
26.3932
26.1438
25.7643
25.2873
24.7401
24.1434
23.512
22.8565
22.1844
21.5009
20.8096
20.1131
19.4131
18.7107
18.0068
17.3019
16.5964
15.8906
15.1847
14.4787
13.7727
13.0667
12.3606
11.6545
10.9483
10.2421
9.5358
8.82951
8.1232
7.41686
6.71052
6.00416
5.2978
4.59143
3.88506
3.17869
2.47231
1.76594
1.05956
0.353188
26.444
26.1452
25.7458
25.2634
24.7172
24.1238
23.4962
22.8442
22.175
21.4939
20.8044
20.1093
19.4104
18.7088
18.0054
17.3009
16.5958
15.8902
15.1844
14.4786
13.7726
13.0666
12.3605
11.6544
10.9482
10.242
9.53577
8.82948
8.12317
7.41685
6.7105
6.00415
5.29779
4.59142
3.88505
3.17868
2.47231
1.76594
1.05956
0.353188
26.5646
26.2114
25.7793
25.2787
24.7228
24.1244
23.4946
22.8417
22.1725
21.4916
20.8025
20.1077
19.4091
18.7078
18.0047
17.3004
16.5954
15.8899
15.1842
14.4784
13.7725
13.0665
12.3605
11.6544
10.9482
10.242
9.53575
8.82947
8.12316
7.41684
6.7105
6.00414
5.29779
4.59142
3.88505
3.17868
2.47231
1.76593
1.05956
0.353188
26.7302
26.318
25.8468
25.3208
24.7487
24.1402
23.5039
22.8471
22.1754
21.493
20.8031
20.1079
19.4091
18.7076
18.0045
17.3002
16.5952
15.8897
15.1841
14.4783
13.7724
13.0665
12.3604
11.6543
10.9482
10.242
9.53575
8.82947
8.12316
7.41684
6.7105
6.00414
5.29778
4.59142
3.88505
3.17868
2.47231
1.76593
1.05956
0.353188
26.9141
26.4445
25.9329
25.3788
24.7873
24.1656
23.5204
22.8577
22.1821
21.4972
20.8057
20.1095
19.41
18.7081
18.0047
17.3002
16.5951
15.8896
15.184
14.4782
13.7724
13.0664
12.3604
11.6544
10.9482
10.242
9.53576
8.82948
8.12317
7.41684
6.7105
6.00414
5.29778
4.59142
3.88505
3.17868
2.47231
1.76593
1.05956
0.353188
27.0948
26.5738
26.0244
25.4427
24.8314
24.1957
23.5407
22.8712
22.191
21.503
20.8094
20.1118
19.4114
18.709
18.0052
17.3004
16.5951
15.8896
15.1839
14.4782
13.7724
13.0665
12.3605
11.6544
10.9482
10.242
9.53578
8.82949
8.12318
7.41685
6.7105
6.00415
5.29779
4.59142
3.88505
3.17868
2.47231
1.76593
1.05956
0.353188
27.2561
26.6923
26.1103
25.5041
24.8747
24.2258
23.5614
22.8852
22.2004
21.5092
20.8134
20.1145
19.4131
18.71
18.0057
17.3007
16.5952
15.8895
15.1838
14.4781
13.7724
13.0665
12.3605
11.6544
10.9483
10.2421
9.5358
8.82951
8.12319
7.41686
6.71051
6.00415
5.29779
4.59142
3.88505
3.17868
2.47231
1.76593
1.05956
0.353187
27.3863
26.7896
26.1821
25.5562
24.912
24.252
23.5796
22.8977
22.2088
21.5148
20.8172
20.1169
19.4147
18.7111
18.0063
17.3009
16.5952
15.8895
15.1838
14.4781
13.7724
13.0665
12.3605
11.6545
10.9483
10.2421
9.53583
8.82953
8.12321
7.41687
6.71052
6.00416
5.29779
4.59142
3.88505
3.17868
2.47231
1.76593
1.05956
0.353187
27.4772
26.8585
26.2334
25.5938
24.9391
24.2713
23.5931
22.907
22.2151
21.5191
20.82
20.1188
19.416
18.7119
18.0068
17.3011
16.5953
15.8894
15.1837
14.4781
13.7724
13.0665
12.3606
11.6545
10.9483
10.2421
9.53585
8.82955
8.12322
7.41688
6.71052
6.00416
5.29779
4.59142
3.88505
3.17868
2.47231
1.76593
1.05956
0.353187
27.5238
26.894
26.2601
25.6135
24.9533
24.2814
23.6002
22.912
22.2185
21.5214
20.8216
20.1199
19.4167
18.7123
18.007
17.3013
16.5953
15.8894
15.1837
14.4781
13.7724
13.0665
12.3606
11.6545
10.9484
10.2421
9.53586
8.82955
8.12322
7.41688
6.71052
6.00416
5.29779
4.59142
3.88505
3.17868
2.4723
1.76593
1.05956
0.353187
27.5238
26.894
26.2601
25.6135
24.9533
24.2814
23.6002
22.912
22.2185
21.5214
20.8216
20.1199
19.4167
18.7123
18.0071
17.3013
16.5953
15.8894
15.1837
14.4781
13.7724
13.0665
12.3606
11.6545
10.9483
10.2421
9.53586
8.82955
8.12322
7.41688
6.71052
6.00416
5.29779
4.59142
3.88505
3.17868
2.4723
1.76593
1.05956
0.353187
27.4772
26.8585
26.2334
25.5939
24.9391
24.2713
23.5931
22.907
22.2152
21.5191
20.8201
20.1189
19.416
18.7119
18.0068
17.3012
16.5953
15.8894
15.1837
14.4781
13.7724
13.0665
12.3606
11.6545
10.9483
10.2421
9.53584
8.82954
8.12322
7.41687
6.71052
6.00416
5.29779
4.59142
3.88505
3.17868
2.4723
1.76593
1.05956
0.353187
27.3863
26.7897
26.1821
25.5563
24.912
24.252
23.5796
22.8978
22.2089
21.5149
20.8172
20.117
19.4148
18.7111
18.0064
17.301
16.5953
15.8895
15.1838
14.4781
13.7724
13.0665
12.3605
11.6545
10.9483
10.2421
9.53582
8.82953
8.1232
7.41687
6.71051
6.00415
5.29779
4.59142
3.88505
3.17868
2.4723
1.76593
1.05956
0.353188
27.2562
26.6923
26.1104
25.5042
24.8748
24.2258
23.5614
22.8853
22.2004
21.5093
20.8135
20.1145
19.4132
18.7101
18.0058
17.3007
16.5952
15.8895
15.1839
14.4781
13.7724
13.0665
12.3605
11.6544
10.9483
10.2421
9.5358
8.82951
8.12319
7.41685
6.71051
6.00415
5.29779
4.59142
3.88505
3.17868
2.4723
1.76593
1.05956
0.353188
27.0949
26.5739
26.0245
25.4428
24.8315
24.1957
23.5408
22.8713
22.1911
21.5031
20.8095
20.1119
19.4115
18.7091
18.0052
17.3005
16.5952
15.8896
15.1839
14.4782
13.7724
13.0664
12.3604
11.6544
10.9482
10.242
9.53577
8.82949
8.12317
7.41684
6.7105
6.00415
5.29778
4.59142
3.88505
3.17868
2.4723
1.76593
1.05956
0.353188
26.9142
26.4446
25.933
25.3789
24.7874
24.1657
23.5205
22.8578
22.1822
21.4973
20.8058
20.1096
19.4101
18.7082
18.0048
17.3003
16.5952
15.8897
15.184
14.4782
13.7724
13.0664
12.3604
11.6543
10.9482
10.242
9.53575
8.82947
8.12316
7.41684
6.71049
6.00414
5.29778
4.59142
3.88505
3.17868
2.47231
1.76593
1.05956
0.353189
26.7302
26.3181
25.8469
25.3209
24.7488
24.1402
23.504
22.8472
22.1755
21.4931
20.8032
20.1081
19.4092
18.7077
18.0046
17.3003
16.5952
15.8898
15.1841
14.4783
13.7724
13.0665
12.3604
11.6543
10.9482
10.242
9.53574
8.82946
8.12316
7.41683
6.71049
6.00414
5.29778
4.59142
3.88505
3.17868
2.47231
1.76593
1.05956
0.353189
26.5647
26.2114
25.7794
25.2787
24.7228
24.1245
23.4947
22.8418
22.1726
21.4917
20.8026
20.1078
19.4092
18.7079
18.0048
17.3005
16.5954
15.89
15.1843
14.4784
13.7725
13.0665
12.3605
11.6543
10.9482
10.242
9.53574
8.82946
8.12316
7.41683
6.71049
6.00414
5.29778
4.59142
3.88505
3.17868
2.47231
1.76594
1.05956
0.353189
26.444
26.1453
25.7459
25.2635
24.7173
24.1239
23.4962
22.8442
22.1751
21.494
20.8045
20.1094
19.4105
18.7089
18.0055
17.301
16.5958
15.8903
15.1845
14.4786
13.7726
13.0666
12.3605
11.6544
10.9482
10.242
9.53576
8.82948
8.12317
7.41684
6.7105
6.00415
5.29779
4.59142
3.88505
3.17868
2.47231
1.76594
1.05956
0.353188
26.3933
26.1439
25.7644
25.2873
24.7402
24.1435
23.5121
22.8566
22.1845
21.501
20.8097
20.1132
19.4132
18.7108
18.0068
17.3019
16.5965
15.8907
15.1847
14.4788
13.7727
13.0667
12.3606
11.6545
10.9483
10.2421
9.53579
8.82951
8.12319
7.41686
6.71051
6.00416
5.2978
4.59143
3.88506
3.17869
2.47231
1.76594
1.05956
0.353189
26.5492
26.2553
25.8425
25.3415
24.7774
24.1689
23.5294
22.8683
22.1923
21.5062
20.8131
20.1154
19.4146
18.7116
18.0073
17.3022
16.5965
15.8907
15.1847
14.4787
13.7727
13.0667
12.3606
11.6545
10.9483
10.2421
9.53582
8.82953
8.12321
7.41687
6.71052
6.00416
5.2978
4.59143
3.88506
3.17869
2.47231
1.76594
1.05956
0.353188
26.6058
26.2532
25.8175
25.3107
24.7482
24.1439
23.5092
22.8525
22.1803
21.4971
20.8065
20.1105
19.4111
18.7091
18.0056
17.301
16.5958
15.8902
15.1844
14.4785
13.7726
13.0666
12.3605
11.6544
10.9482
10.242
9.53578
8.82949
8.12318
7.41685
6.71051
6.00415
5.29779
4.59142
3.88506
3.17868
2.47231
1.76594
1.05956
0.353189
26.7302
26.318
25.8468
25.3208
24.7487
24.1401
23.5039
22.8471
22.1754
21.493
20.8031
20.1079
19.4091
18.7076
18.0045
17.3002
16.5952
15.8897
15.1841
14.4783
13.7724
13.0665
12.3604
11.6543
10.9482
10.242
9.53575
8.82947
8.12316