# vtk DataFile Version 2.0
I need something to put here
ASCII

DATASET STRUCTURED_GRID
DIMENSIONS 41 21 21
POINTS 18081 float
0.000000 0.000000 0.000000
0.100000 0.000000 0.000000
0.200000 0.000000 0.000000
0.300000 0.000000 0.000000
0.400000 0.000000 0.000000
0.500000 0.000000 0.000000
0.600000 0.000000 0.000000
0.700000 0.000000 0.000000
0.800000 0.000000 0.000000
0.900000 0.000000 0.000000
1.000000 0.000000 0.000000
1.100000 0.000000 0.000000
1.200000 0.000000 0.000000
1.300000 0.000000 0.000000
1.400000 0.000000 0.000000
1.500000 0.000000 0.000000
1.600000 0.000000 0.000000
1.700000 0.000000 0.000000
1.800000 0.000000 0.000000
1.900000 0.000000 0.000000
2.000000 0.000000 0.000000
2.100000 0.000000 0.000000
2.200000 0.000000 0.000000
2.300000 0.000000 0.000000
2.400000 0.000000 0.000000
2.500000 0.000000 0.000000
2.600000 0.000000 0.000000
2.700000 0.000000 0.000000
2.800000 0.000000 0.000000
2.900000 0.000000 0.000000
3.000000 0.000000 0.000000
3.100000 0.000000 0.000000
3.200000 0.000000 0.000000
3.300000 0.000000 0.000000
3.400000 0.000000 0.000000
3.500000 0.000000 0.000000
3.600000 0.000000 0.000000
3.700000 0.000000 0.000000
3.800000 0.000000 0.000000
3.900000 0.000000 0.000000
4.000000 0.000000 0.000000
0.000000 0.100000 0.000000
0.100000 0.100000 0.000000
0.200000 0.100000 0.000000
0.300000 0.100000 0.000000
0.400000 0.100000 0.000000
0.500000 0.100000 0.000000
0.600000 0.100000 0.000000
0.700000 0.100000 0.000000
0.800000 0.100000 0.000000
0.900000 0.100000 0.000000
1.000000 0.100000 0.000000
1.100000 0.100000 0.000000
1.200000 0.100000 0.000000
1.300000 0.100000 0.000000
1.400000 0.100000 0.000000
1.500000 0.100000 0.000000
1.600000 0.100000 0.000000
1.700000 0.100000 0.000000
1.800000 0.100000 0.000000
1.900000 0.100000 0.000000
2.000000 0.100000 0.000000
2.100000 0.100000 0.000000
2.200000 0.100000 0.000000
2.300000 0.100000 0.000000
2.400000 0.100000 0.000000
2.500000 0.100000 0.000000
2.600000 0.100000 0.000000
2.700000 0.100000 0.000000
2.800000 0.100000 0.000000
2.900000 0.100000 0.000000
3.000000 0.100000 0.000000
3.100000 0.100000 0.000000
3.200000 0.100000 0.000000
3.300000 0.100000 0.000000
3.400000 0.100000 0.000000
3.500000 0.100000 0.000000
3.600000 0.100000 0.000000
3.700000 0.100000 0.000000
3.800000 0.100000 0.000000
3.900000 0.100000 0.000000
4.000000 0.100000 0.000000
0.000000 0.200000 0.000000
0.100000 0.200000 0.000000
0.200000 0.200000 0.000000
0.300000 0.200000 0.000000
0.400000 0.200000 0.000000
0.500000 0.200000 0.000000
0.600000 0.200000 0.000000
0.700000 0.200000 0.000000
0.800000 0.200000 0.000000
0.900000 0.200000 0.000000
1.000000 0.200000 0.000000
1.100000 0.200000 0.000000
1.200000 0.200000 0.000000
1.300000 0.200000 0.000000
1.400000 0.200000 0.000000
1.500000 0.200000 0.000000
1.600000 0.200000 0.000000
1.700000 0.200000 0.000000
1.800000 0.200000 0.000000
1.900000 0.200000 0.000000
2.000000 0.200000 0.000000
2.100000 0.200000 0.000000
2.200000 0.200000 0.000000
2.300000 0.200000 0.000000
2.400000 0.200000 0.000000
2.500000 0.200000 0.000000
2.600000 0.200000 0.000000
2.700000 0.200000 0.000000
2.800000 0.200000 0.000000
2.900000 0.200000 0.000000
3.000000 0.200000 0.000000
3.100000 0.200000 0.000000
3.200000 0.200000 0.000000
3.300000 0.200000 0.000000
3.400000 0.200000 0.000000
3.500000 0.200000 0.000000
3.600000 0.200000 0.000000
3.700000 0.200000 0.000000
3.800000 0.200000 0.000000
3.900000 0.200000 0.000000
4.000000 0.200000 0.000000
0.000000 0.300000 0.000000
0.100000 0.300000 0.000000
0.200000 0.300000 0.000000
0.300000 0.300000 0.000000
0.400000 0.300000 0.000000
0.500000 0.300000 0.000000
0.600000 0.300000 0.000000
0.700000 0.300000 0.000000
0.800000 0.300000 0.000000
0.900000 0.300000 0.000000
1.000000 0.300000 0.000000
1.100000 0.300000 0.000000
1.200000 0.300000 0.000000
1.300000 0.300000 0.000000
1.400000 0.300000 0.000000
1.500000 0.300000 0.000000
1.600000 0.300000 0.000000
1.700000 0.300000 0.000000
1.800000 0.300000 0.000000
1.900000 0.300000 0.000000
2.000000 0.300000 0.000000
2.100000 0.300000 0.000000
2.200000 0.300000 0.000000
2.300000 0.300000 0.000000
2.400000 0.300000 0.000000
2.500000 0.300000 0.000000
2.600000 0.300000 0.000000
2.700000 0.300000 0.000000
2.800000 0.300000 0.000000
2.900000 0.300000 0.000000
3.000000 0.300000 0.000000
3.100000 0.300000 0.000000
3.200000 0.300000 0.000000
3.300000 0.300000 0.000000
3.400000 0.300000 0.000000
3.500000 0.300000 0.000000
3.600000 0.300000 0.000000
3.700000 0.300000 0.000000
3.800000 0.300000 0.000000
3.900000 0.300000 0.000000
4.000000 0.300000 0.000000
0.000000 0.400000 0.000000
0.100000 0.400000 0.000000
0.200000 0.400000 0.000000
0.300000 0.400000 0.000000
0.400000 0.400000 0.000000
0.500000 0.400000 0.000000
0.600000 0.400000 0.000000
0.700000 0.400000 0.000000
0.800000 0.400000 0.000000
0.900000 0.400000 0.000000
1.000000 0.400000 0.000000
1.100000 0.400000 0.000000
1.200000 0.400000 0.000000
1.300000 0.400000 0.000000
1.400000 0.400000 0.000000
1.500000 0.400000 0.000000
1.600000 0.400000 0.000000
1.700000 0.400000 0.000000
1.800000 0.400000 0.000000
1.900000 0.400000 0.000000
2.000000 0.400000 0.000000
2.100000 0.400000 0.000000
2.200000 0.400000 0.000000
2.300000 0.400000 0.000000
2.400000 0.400000 0.000000
2.500000 0.400000 0.000000
2.600000 0.400000 0.000000
2.700000 0.400000 0.000000
2.800000 0.400000 0.000000
2.900000 0.400000 0.000000
3.000000 0.400000 0.000000
3.100000 0.400000 0.000000
3.200000 0.400000 0.000000
3.300000 0.400000 0.000000
3.400000 0.400000 0.000000
3.500000 0.400000 0.000000
3.600000 0.400000 0.000000
3.700000 0.400000 0.000000
3.800000 0.400000 0.000000
3.900000 0.400000 0.000000
4.000000 0.400000 0.000000
0.000000 0.500000 0.000000
0.100000 0.500000 0.000000
0.200000 0.500000 0.000000
0.300000 0.500000 0.000000
0.400000 0.500000 0.000000
0.500000 0.500000 0.000000
0.600000 0.500000 0.000000
0.700000 0.500000 0.000000
0.800000 0.500000 0.000000
0.900000 0.500000 0.000000
1.000000 0.500000 0.000000
1.100000 0.500000 0.000000
1.200000 0.500000 0.000000
1.300000 0.500000 0.000000
1.400000 0.500000 0.000000
1.500000 0.500000 0.000000
1.600000 0.500000 0.000000
1.700000 0.500000 0.000000
1.800000 0.500000 0.000000
1.900000 0.500000 0.000000
2.000000 0.500000 0.000000
2.100000 0.500000 0.000000
2.200000 0.500000 0.000000
2.300000 0.500000 0.000000
2.400000 0.500000 0.000000
2.500000 0.500000 0.000000
2.600000 0.500000 0.000000
2.700000 0.500000 0.000000
2.800000 0.500000 0.000000
2.900000 0.500000 0.000000
3.000000 0.500000 0.000000
3.100000 0.500000 0.000000
3.200000 0.500000 0.000000
3.300000 0.500000 0.000000
3.400000 0.500000 0.000000
3.500000 0.500000 0.000000
3.600000 0.500000 0.000000
3.700000 0.500000 0.000000
3.800000 0.500000 0.000000
3.900000 0.500000 0.000000
4.000000 0.500000 0.000000
0.000000 0.600000 0.000000
0.100000 0.600000 0.000000
0.200000 0.600000 0.000000
0.300000 0.600000 0.000000
0.400000 0.600000 0.000000
0.500000 0.600000 0.000000
0.600000 0.600000 0.000000
0.700000 0.600000 0.000000
0.800000 0.600000 0.000000
0.900000 0.600000 0.000000
1.000000 0.600000 0.000000
1.100000 0.600000 0.000000
1.200000 0.600000 0.000000
1.300000 0.600000 0.000000
1.400000 0.600000 0.000000
1.500000 0.600000 0.000000
1.600000 0.600000 0.000000
1.700000 0.600000 0.000000
1.800000 0.600000 0.000000
1.900000 0.600000 0.000000
2.000000 0.600000 0.000000
2.100000 0.600000 0.000000
2.200000 0.600000 0.000000
2.300000 0.600000 0.000000
2.400000 0.600000 0.000000
2.500000 0.600000 0.000000
2.600000 0.600000 0.000000
2.700000 0.600000 0.000000
2.800000 0.600000 0.000000
2.900000 0.600000 0.000000
3.000000 0.600000 0.000000
3.100000 0.600000 0.000000
3.200000 0.600000 0.000000
3.300000 0.600000 0.000000
3.400000 0.600000 0.000000
3.500000 0.600000 0.000000
3.600000 0.600000 0.000000
3.700000 0.600000 0.000000
3.800000 0.600000 0.000000
3.900000 0.600000 0.000000
4.000000 0.600000 0.000000
0.000000 0.700000 0.000000
0.100000 0.700000 0.000000
0.200000 0.700000 0.000000
0.300000 0.700000 0.000000
0.400000 0.700000 0.000000
0.500000 0.700000 0.000000
0.600000 0.700000 0.000000
0.700000 0.700000 0.000000
0.800000 0.700000 0.000000
0.900000 0.700000 0.000000
1.000000 0.700000 0.000000
1.100000 0.700000 0.000000
1.200000 0.700000 0.000000
1.300000 0.700000 0.000000
1.400000 0.700000 0.000000
1.500000 0.700000 0.000000
1.600000 0.700000 0.000000
1.700000 0.700000 0.000000
1.800000 0.700000 0.000000
1.900000 0.700000 0.000000
2.000000 0.700000 0.000000
2.100000 0.700000 0.000000
2.200000 0.700000 0.000000
2.300000 0.700000 0.000000
2.400000 0.700000 0.000000
2.500000 0.700000 0.000000
2.600000 0.700000 0.000000
2.700000 0.700000 0.000000
2.800000 0.700000 0.000000
2.900000 0.700000 0.000000
3.000000 0.700000 0.000000
3.100000 0.700000 0.000000
3.200000 0.700000 0.000000
3.300000 0.700000 0.000000
3.400000 0.700000 0.000000
3.500000 0.700000 0.000000
3.600000 0.700000 0.000000
3.700000 0.700000 0.000000
3.800000 0.700000 0.000000
3.900000 0.700000 0.000000
4.000000 0.700000 0.000000
0.000000 0.800000 0.000000
0.100000 0.800000 0.000000
0.200000 0.800000 0.000000
0.300000 0.800000 0.000000
0.400000 0.800000 0.000000
0.500000 0.800000 0.000000
0.600000 0.800000 0.000000
0.700000 0.800000 0.000000
0.800000 0.800000 0.000000
0.900000 0.800000 0.000000
1.000000 0.800000 0.000000
1.100000 0.800000 0.000000
1.200000 0.800000 0.000000
1.300000 0.800000 0.000000
1.400000 0.800000 0.000000
1.500000 0.800000 0.000000
1.600000 0.800000 0.000000
1.700000 0.800000 0.000000
1.800000 0.800000 0.000000
1.900000 0.800000 0.000000
2.000000 0.800000 0.000000
2.100000 0.800000 0.000000
2.200000 0.800000 0.000000
2.300000 0.800000 0.000000
2.400000 0.800000 0.000000
2.500000 0.800000 0.000000
2.600000 0.800000 0.000000
2.700000 0.800000 0.000000
2.800000 0.800000 0.000000
2.900000 0.800000 0.000000
3.000000 0.800000 0.000000
3.100000 0.800000 0.000000
3.200000 0.800000 0.000000
3.300000 0.800000 0.000000
3.400000 0.800000 0.000000
3.500000 0.800000 0.000000
3.600000 0.800000 0.000000
[...]
CELL_DATA 16000
SCALARS pressure float 1
LOOKUP_TABLE default
37.5867
37.4129
37.0745
36.6002
36.0114
35.3207
34.5324
33.6447
32.6524
31.5501
30.3359
29.0143
27.5977
26.1062
24.5654
23.0033
21.4486
19.9285
18.4671
17.0836
15.7903
14.5923
13.4872
12.4672
11.5211
10.6364
9.80063
9.00256
8.23274
7.4835
6.7489
6.02447
5.30692
4.59395
3.88391
3.17573
2.46871
1.76243
1.05675
0.351764
37.6409
37.4426
37.0909
36.6091
36.0163
35.3238
34.5349
33.6474
32.6556
31.5538
30.3397
29.0177
27.6002
26.1076
24.5655
23.0022
21.4465
19.9256
18.4636
17.0798
15.7867
14.5893
13.485
12.4659
11.5206
10.6365
9.80107
9.00324
8.23351
7.48427
6.74961
6.02509
5.30745
4.59437
3.88425
3.176
2.46891
1.76256
1.0568
0.351676
37.7621
37.5289
37.1546
36.659
36.0589
35.3638
34.5758
33.6911
32.7023
31.6019
30.3862
29.0586
27.6319
26.1276
24.5729
22.997
21.4294
19.898
18.4278
17.0389
15.7444
14.5487
13.4487
12.4351
11.4958
10.6173
9.78679
8.99294
8.22631
7.47939
6.7464
6.02305
5.3062
4.59365
3.88386
3.17581
2.46881
1.76249
1.05668
0.351492
37.9305
37.6565
37.2543
36.7414
36.1328
35.4359
34.6511
33.7724
32.7894
31.6917
30.4726
29.1342
27.69
26.1639
24.5856
22.9862
21.3965
19.8456
18.36
16.9617
15.6644
14.4722
13.3801
12.377
11.4488
10.5807
9.75929
8.97288
8.21208
7.46956
6.73978
6.01871
5.30344
4.59195
3.88285
3.17523
2.46848
1.76227
1.05649
0.351326
38.1255
37.8103
37.3787
36.8477
36.2308
35.5341
34.7555
33.8861
32.9122
31.8186
30.5947
29.2407
27.7712
26.2137
24.6018
22.9693
21.3484
19.7697
18.2623
16.8508
15.5501
14.3633
13.283
12.295
11.3826
10.5293
9.72069
8.94473
8.19209
7.4557
6.7304
6.01251
5.29945
4.58946
3.88135
3.17435
2.46797
1.76197
1.05629
0.351212
38.3267
37.9739
37.5145
36.9667
36.3432
35.6487
34.8791
34.0224
33.0602
31.9723
30.7431
29.3699
27.8689
26.2727
24.6199
22.9473
21.2886
19.6763
18.1422
16.7147
15.4104
14.2309
13.1655
12.1963
11.3033
10.468
9.67479
8.91132
8.16838
7.43927
6.71927
6.00515
5.2947
4.58648
3.87953
3.17328
2.46737
1.76164
1.05611
0.351154
38.515
38.1304
37.6472
37.0852
36.4573
35.767
35.0083
34.166
33.2175
32.1365
30.9019
29.508
27.9728
26.3348
24.6383
22.9229
21.2241
19.5756
18.0129
16.5684
15.2607
14.0898
13.041
12.0921
11.22
10.4039
9.62693
8.87658
8.14378
7.42224
6.70775
5.99753
5.28978
4.58338
3.87765
3.17217
2.46675
1.76132
1.05597
0.351143
38.6733
38.2641
37.7623
37.1897
36.5593
35.874
35.1263
34.2983
33.3631
32.2892
31.0501
29.637
28.0697
26.3924
24.655
22.9
21.1638
19.4815
17.8919
16.4317
15.1213
13.9589
12.9259
11.9964
11.1438
10.3454
9.58338
8.84504
8.12149
7.40684
6.69734
5.99065
5.28534
4.58059
3.87594
3.17118
2.4662
1.76104
1.05587
0.35116
38.7874
38.3615
37.847
37.2674
36.636
35.9552
35.2164
34.3999
33.4755
32.4076
31.1652
29.7373
28.1449
26.4371
24.668
22.8822
21.117
19.4084
17.798
16.3258
15.0135
13.8578
12.8374
11.9229
11.0855
10.3007
9.55023
8.82108
8.10457
7.39517
6.68946
5.98544
5.28197
4.57847
3.87466
3.17043
2.46579
1.76084
1.05581
0.351185
38.8472
38.4128
37.892
37.309
36.6772
35.999
35.2653
34.4552
33.5368
32.4722
31.2282
29.7922
28.1862
26.4617
24.6752
22.8726
21.0915
19.3686
17.7468
16.268
14.9547
13.8028
12.7893
11.8831
11.0539
10.2765
9.53232
8.80815
8.09546
7.38888
6.68521
5.98263
5.28016
4.57734
3.87397
3.17002
2.46557
1.76074
1.05578
0.351202
38.8473
38.4129
37.8922
37.3091
36.6773
35.9992
35.2655
34.4554
33.537
32.4724
31.2284
29.7925
28.1864
26.4619
24.6754
22.8727
21.0916
19.3688
17.7469
16.2682
14.9548
13.8029
12.7894
11.8831
11.0539
10.2765
9.53232
8.80814
8.09545
7.38887
6.68521
5.98263
5.28016
4.57733
3.87396
3.17002
2.46557
1.76073
1.05578
0.3512
38.7878
38.3619
37.8474
37.2679
36.6364
35.9556
35.2169
34.4005
33.4761
32.4082
31.1658
29.738
28.1456
26.4377
24.6686
22.8827
21.1174
19.4089
17.7984
16.3261
15.0137
13.858
12.8375
11.923
11.0855
10.3007
9.55021
8.82106
8.10455
7.39515
6.68944
5.98542
5.28196
4.57846
3.87465
3.17042
2.46578
1.76084
1.0558
0.351179
38.674
38.2648
37.7629
37.1904
36.56
35.8747
35.1271
34.2992
33.3641
32.2903
31.0512
29.6382
28.0708
26.3934
24.6559
22.9008
21.1645
19.4821
17.8924
16.4321
15.1216
13.9591
12.926
11.9964
11.1438
10.3453
9.58335
8.845
8.12144
7.4068
6.6973
5.99061
5.28531
4.58056
3.87593
3.17116
2.46619
1.76103
1.05586
0.351151
38.5159
38.1313
37.6481
37.0862
36.4583
35.768
35.0094
34.1673
33.2188
32.1379
30.9034
29.5095
27.9743
26.3362
24.6394
22.9239
21.2249
19.5763
18.0134
16.5688
15.261
14.0899
13.041
12.0921
11.22
10.4038
9.62686
8.87651
8.14371
7.42218
6.7077
5.99748
5.28974
4.58335
3.87762
3.17216
2.46674
1.7613
1.05596
0.351131
38.3278
37.975
37.5156
36.9678
36.3444
35.65
34.8806
34.024
33.0619
31.9742
30.745
29.3718
27.8707
26.2743
24.6213
22.9484
21.2895
19.6769
18.1426
16.715
15.4105
14.231
13.1655
12.1962
11.3032
10.4679
9.67467
8.91121
8.16828
7.43918
6.7192
6.00509
5.29465
4.58644
3.8795
3.17326
2.46735
1.76162
1.0561
0.35114
38.1267
37.8116
37.3799
36.849
36.2322
35.5356
34.7571
33.8879
32.9141
31.8206
30.5969
29.2429
27.7732
26.2154
24.6033
22.9704
21.3492
19.7703
18.2626
16.8509
15.5501
14.3632
13.2828
12.2948
11.3824
10.5291
9.72053
8.94459
8.19196
7.45559
6.73031
6.01244
5.2994
4.58941
3.88131
3.17432
2.46795
1.76195
1.05628
0.351197
37.9319
37.6579
37.2556
36.7429
36.1343
35.4376
34.6529
33.7743
32.7915
31.694
30.4749
29.1365
27.6921
26.1658
24.5871
22.9874
21.3973
19.846
18.3602
16.9617
15.6643
14.472
13.3798
12.3767
11.4485
10.5805
9.75909
8.97271
8.21194
7.46944
6.73968
6.01863
5.30338
4.5919
3.88282
3.1752
2.46846
1.76225
1.05647
0.351313
37.7635
37.5303
37.156
36.6605
36.0605
35.3655
34.5776
33.6931
32.7045
31.6042
30.3886
29.0609
27.634
26.1295
24.5745
22.9982
21.4302
19.8985
18.4279
17.0389
15.7442
14.5484
13.4483
12.4348
11.4955
10.617
9.78656
8.99274
8.22615
7.47926
6.7463
6.02296
5.30614
4.5936
3.88382
3.17578
2.46879
1.76247
1.05666
0.351481
37.6423
37.4441
37.0923
36.6106
36.0179
35.3255
34.5367
33.6494
32.6577
31.5561
30.3421
29.02
27.6024
26.1095
24.5671
23.0034
21.4473
19.926
18.4637
17.0797
15.7865
14.589
13.4846
12.4655
11.5203
10.6362
9.80083
9.00303
8.23334
7.48413
6.7495
6.025
5.30738
4.59432
3.88421
3.17597
2.46889
1.76255
1.05679
0.351668
37.5882
37.4143
37.076
36.6016
36.0129
35.3224
34.5343
33.6467
32.6546
31.5524
30.3382
29.0165
27.5998
26.1081
24.5669
23.0045
21.4494
19.9289
18.4673
17.0835
15.7901
14.592
13.4868
12.4668
11.5208
10.6361
9.80038
9.00235
8.23257
7.48336
6.74879
6.02438
5.30686
4.59389
3.88387
3.17571
2.46869
1.76242
1.05675
0.35176
37.6409
37.4426
37.0909
36.6091
36.0163
35.3238
34.5349
33.6473
32.6556
31.5538
30.3397
29.0177
27.6002
26.1076
24.5655
23.0022
21.4465
19.9256
18.4636
17.0798
15.7868
14.5893
13.485
12.4659
11.5206
10.6365
9.80108
9.00324
8.23351
7.48427
6.74962
6.02509
5.30745
4.59437
3.88425
3.176
2.46891
1.76256
1.0568
0.351676
37.6805
37.4448
37.0733
36.5814
35.983
35.2866
34.4945
33.6044
32.6111
31.5095
30.2978
28.9807
27.5706
26.0872
24.5555
23.003
21.4577
19.9462
18.4919
17.1136
15.8235
14.6264
13.5204
12.498
11.5487
10.6601
9.82037
9.01859
8.24544
7.49336
6.75641
6.03008
5.31106
4.59696
3.88608
3.17729
2.46982
1.76322
1.05725
0.351808
37.7952
37.5154
37.1158
36.6068
35.9986
35.297
34.5031
33.613
32.6206
31.5197
30.308
28.9894
27.5765
26.0898
24.5547
22.9991
21.4511
19.9374
18.4816
17.1027
15.8132
14.6178
13.5139
12.4938
11.5464
10.6595
9.82088
9.01979
8.24698
7.495
6.75798
6.03149
5.31228
4.59796
3.8869
3.17793
2.47031
1.76357
1.05744
0.351768
37.9652
37.6348
37.2021
36.6724
36.0526
35.3462
34.5522
33.6648
32.6756
31.5762
30.362
29.0362
27.6116
26.1105
24.5601
22.9895
21.4277
19.9018
18.4367
17.0525
15.7621
14.5696
13.4715
12.4586
11.5186
10.6384
9.80561
9.00912
8.23983
7.49039
6.75516
6.02989
5.31145
4.59763
3.88684
3.17802
2.47045
1.7637
1.0575
0.351727
38.1663
37.7845
37.3173
36.766
36.1347
35.4249
34.6331
33.7512
32.7675
31.6704
30.452
29.1139
27.6699
26.1449
24.5693
22.9741
21.3892
19.8431
18.3622
16.9688
15.6765
14.4887
13.3998
12.3984
11.4703
10.6012
9.77791
8.98916
8.22587
7.48092
6.74893
6.02592
5.30903
4.59622
3.88608
3.17766
2.47031
1.76366
1.05749
0.351727
38.3754
37.9459
37.4462
36.8746
36.2334
35.522
34.7348
33.8608
32.8849
31.791
30.5674
29.2134
27.744
26.1883
24.5805
22.954
21.3399
19.7677
18.2665
16.8612
15.5667
14.385
13.308
12.3213
11.4084
10.5533
9.74211
8.96317
8.20752
7.4683
6.74048
6.02042
5.30556
4.59412
3.88487
3.177
2.46999
1.76353
1.05747
0.351775
38.5717
38.1011
37.5732
36.9844
36.3354
35.6242
34.8433
33.9789
33.0122
31.9225
30.6936
29.3222
27.8246
26.2351
24.5924
22.9319
21.286
19.6854
18.1616
16.7434
15.4468
14.2722
13.2084
12.2379
11.3416
10.5017
9.70347
8.93508
8.18762
7.45455
6.73121
6.01434
5.30168
4.59172
3.88345
3.17621
2.46959
1.76336
1.05745
0.351857
38.7367
38.234
37.6839
37.0817
36.4273
35.7176
34.9434
34.0887
33.1312
32.046
30.8125
29.4248
27.9005
26.279
24.6034
22.9113
21.2355
19.608
18.0629
16.6326
15.3343
14.1667
13.1157
12.1605
11.2796
10.4539
9.66775
8.90911
8.1692
7.44181
6.7226
6.00867
5.29804
4.58946
3.8821
3.17545
2.46919
1.7632
1.05743
0.351951
38.8557
38.3308
37.7655
37.1543
36.4966
35.7886
35.0201
34.1733
33.2233
32.1419
30.9051
29.5048
27.9597
26.3133
24.6122
22.8953
21.1964
19.5479
17.9862
16.5466
15.247
14.0851
13.0441
12.1008
11.232
10.4172
9.64036
8.8892
8.15509
7.43204
6.716
6.0043
5.29524
4.58771
3.88105
3.17485
2.46888
1.76307
1.05742
0.352032
38.9179
38.3819
37.8088
37.1931
36.5339
35.8271
35.0618
34.2194
33.2736
32.1944
30.9558
29.5487
27.9922
26.3322
24.6171
22.8867
21.1751
19.5152
17.9444
16.4997
15.1996
14.0408
13.0052
12.0685
11.2062
10.3974
9.62551
8.87841
8.14745
7.42675
6.71241
6.00193
5.29371
4.58676
3.88048
3.17452
2.46871
1.763
1.05742
0.352078
38.9181
38.382
37.8089
37.1932
36.534
35.8272
35.062
34.2196
33.2738
32.1946
30.956
29.5489
27.9924
26.3324
24.6173
22.8869
21.1752
19.5153
17.9446
16.4998
15.1996
14.0408
13.0052
12.0685
11.2062
10.3974
9.62551
8.87841
8.14744
7.42674
6.71241
6.00193
5.29371
4.58675
3.88047
3.17452
2.46871
1.763
1.05742
0.352077
38.8561
38.3312
37.7659
37.1547
36.497
35.7891
35.0206
34.1738
33.2239
32.1425
30.9057
29.5054
27.9603
26.3138
24.6127
22.8958
21.1968
19.5483
17.9866
16.5469
15.2473
14.0853
13.0442
12.1009
11.232
10.4172
9.64034
8.88917
8.15507
7.43201
6.71597
6.00428
5.29522
4.5877
3.88104
3.17484
2.46888
1.76307
1.05742
0.35203
38.7374
38.2347
37.6845
37.0823
36.428
35.7183
34.9442
34.0895
33.1321
32.0469
30.8135
29.4258
27.9014
26.2799
24.6043
22.912
21.2362
19.6086
18.0634
16.633
15.3345
14.1669
13.1158
12.1605
11.2796
10.4539
9.66771
8.90906
8.16916
7.44177
6.72257
6.00863
5.29802
4.58944
3.88209
3.17543
2.46919
1.7632
1.05743
0.351949
38.5726
38.102
37.5741
36.9853
36.3364
35.6252
34.8444
33.9801
33.0134
31.9238
30.695
29.3236
27.826
26.2363
24.5935
22.9328
21.2867
19.686
18.1621
16.7437
15.447
14.2723
13.2085
12.2379
11.3415
10.5016
9.7034
8.93501
8.18755
7.45449
6.73116
6.01429
5.30165
4.5917
3.88343
3.1762
2.46958
1.76336
1.05745
0.351854
38.3766
37.947
37.4472
36.8757
36.2346
35.5232
34.7361
33.8623
32.8865
31.7927
30.5692
29.2152
27.7456
26.1897
24.5818
22.955
21.3406
19.7683
18.2669
16.8614
15.5668
14.385
13.3079
12.3212
11.4083
10.5532
9.74199
8.96307
8.20742
7.46822
6.74041
6.02036
5.30552
4.59408
3.88484
3.17698
2.46998
1.76353
1.05748
0.351771
38.1676
37.7857
37.3185
36.7673
36.1361
35.4264
34.6347
33.7529
32.7694
31.6723
30.454
29.1159
27.6717
26.1465
24.5707
22.9751
21.39
19.8436
18.3625
16.9689
15.6765
14.4886
13.3996
12.3982
11.4701
10.601
9.77775
8.98903
8.22575
7.48082
6.74884
6.02585
5.30898
4.59618
3.88605
3.17763
2.4703
1.76366
1.0575
0.351722
37.9666
37.6362
37.2034
36.6738
36.054
35.3478
34.5539
33.6667
32.6776
31.5783
30.3642
29.0383
27.6136
26.1122
24.5615
22.9906
21.4284
19.9023
18.4369
17.0525
15.7619
14.5694
13.4713
12.4584
11.5184
10.6382
9.80541
9.00896
8.23968
7.49027
6.75507
6.02981
5.31139
4.59758
3.8868
3.17799
2.47043
1.76369
1.0575
0.351721
37.7967
37.5168
37.1172
36.6082
36.0001
35.2987
34.5049
33.6149
32.6227
31.5219
30.3102
28.9916
27.5786
26.0916
24.5562
23.0002
21.4519
19.9378
18.4817
17.1027
15.8131
14.6175
13.5136
12.4935
11.5462
10.6592
9.82065
9.0196
8.24683
7.49487
6.75787
6.03141
5.31221
4.59791
3.88686
3.1779
2.4703
1.76356
1.05744
0.351763
37.682
37.4463
37.0747
36.5829
35.9846
35.2883
34.4964
33.6064
32.6132
31.5117
30.3001
28.9829
27.5726
26.089
24.557
23.0041
21.4585
19.9466
18.4921
17.1135
15.8232
14.6261
13.52
12.4977
11.5483
10.6598
9.82013
9.01839
8.24527
7.49322
6.7563
6.03
5.311
4.5969
3.88604
3.17726
2.4698
1.76321
1.05725
0.351802
37.6423
37.444
37.0923
36.6105
36.0179
35.3254
34.5367
33.6493
32.6577
31.556
30.342
29.0199
27.6023
26.1094
24.567
23.0034
21.4473
19.926
18.4637
17.0797
15.7865
14.589
13.4846
12.4655
11.5203
10.6362
9.80083
9.00304
8.23334
7.48414
6.74951
6.025
5.30738
4.59432
3.88421
3.17597
2.46889
1.76255
1.0568
0.351674
37.7621
37.5289
37.1546
36.659
36.0589
35.3638
34.5758
33.691
32.7022
31.6019
30.3861
29.0585
27.6318
26.1276
24.5729
22.997
21.4294
19.898
18.4278
17.039
15.7444
14.5488
13.4487
12.4352
11.4958
10.6173
9.78681
8.99295
8.22632
7.4794
6.74641
6.02305
5.30621
4.59366
3.88387
3.17581
2.46881
1.76249
1.05668
0.351493
37.7952
37.5154
37.1157
36.6068
35.9986
35.297
34.503
33.613
32.6205
31.5197
30.3079
28.9893
27.5765
26.0897
24.5547
22.9991
21.4511
19.9374
18.4816
17.1028
15.8133
14.6178
13.5139
12.4938
11.5465
10.6595
9.82089
9.0198
8.24699
7.495
6.75798
6.0315
5.31228
4.59796
3.8869
3.17793
2.47031
1.76357
1.05744
0.351769
37.9031
37.5748
37.1426
36.6132
35.9925
35.2836
34.4855
33.5935
32.6008
31.5007
30.2903
28.9733
27.5624
26.0783
24.5468
22.9956
21.4522
19.9426
18.4903
17.1146
15.8277
14.6341
13.5313
12.5112
11.5629
10.6744
9.83396
9.03086
8.25611
7.50234
6.76376
6.03597
5.31569
4.60053
3.8888
3.17933
2.47134
1.76429
1.05787
0.351814
38.0716
37.688
37.2185
36.6652
36.0304
35.3146
34.5147
33.6241
32.634
31.5357
30.324
29.0016
27.5816
26.087
24.5454
22.985
21.4332
19.9162
18.4583
17.0801
15.7943
14.6046
13.5072
12.493
11.5501
10.6661
9.82908
9.02844
8.25532
7.50255
6.76453
6.03698
5.31675
4.60153
3.88969
3.18009
2.47195
1.76474
1.05814
0.351855
38.2767
37.8357
37.3275
36.7494
36.1009
35.3797
34.5807
33.6948
32.7103
31.6149
30.3998
29.0657
27.6269
26.1105
24.5473
22.9669
21.3964
19.8625
18.3913
17.0062
15.7207
14.5372
13.4496
12.4463
11.5141
10.6394
9.81008
9.01542
8.24675
7.49716
6.76133
6.03524
5.31593
4.60127
3.88975
3.1803
2.4722
1.76499
1.05832
0.351946
38.4933
37.998
37.4529
36.8517
36.191
35.4667
34.6713
33.7932
32.8171
31.7261
30.5066
29.1561
27.6904
26.1436
24.551
22.943
21.3467
19.7888
18.2981
16.9029
15.6178
14.4429
13.3685
12.3802
11.4624
10.6005
9.78169
8.99535
8.23298
7.48802
6.75546
6.03163
5.31383
4.60014
3.88922
3.18012
2.47222
1.76509
1.05846
0.352093
38.6984
38.1558
37.5784
36.9572
36.287
35.5617
34.772
33.9038
32.9382
31.8532
30.6294
29.2601
27.7628
26.1809
24.5552
22.9167
21.2914
19.7056
18.1918
16.7849
15.5007
14.3361
13.2771
12.3056
11.404
10.5564
9.7493
8.97225
8.21695
7.47718
6.74835
6.02711
5.31107
4.59855
3.88836
3.17973
2.47209
1.76512
1.05857
0.352274
38.8719
38.2916
37.6885
37.0518
36.3747
35.6499
34.8668
34.0089
33.0542
31.9759
30.7488
29.3613
27.8327
26.2169
24.5596
22.8921
21.2389
19.626
18.089
16.6709
15.3883
14.2341
13.1901
12.235
11.3488
10.5146
9.71858
8.95026
8.20161
7.46676
6.74145
6.02267
5.30832
4.59691
3.88745
3.17927
2.47191
1.7651
1.05866
0.352456
38.9973
38.3909
37.7701
37.1228
36.4414
35.7178
34.9403
34.091
33.1452
32.0725
30.843
29.4415
27.8884
26.2459
24.5636
22.8732
21.1978
19.5635
18.0085
16.5817
15.3003
14.1544
13.1223
12.18
11.3059
10.4821
9.69473
8.93318
8.18967
7.45861
6.73603
6.01917
5.30612
4.59559
3.8867
3.17888
2.47174
1.76507
1.05873
0.352604
39.0631
38.4433
37.8134
37.1608
36.4774
35.7547
34.9804
34.1359
33.1951
32.1255
30.8948
29.4856
27.9194
26.2623
24.5662
22.863
21.1753
19.5292
17.9645
16.533
15.2523
14.111
13.0854
12.1501
11.2825
10.4644
9.68174
8.92387
8.18316
7.45416
6.73307
6.01725
5.30491
4.59486
3.88628
3.17866
2.47164
1.76505
1.05876
0.352686
39.0632
38.4434
37.8136
37.161
36.4775
35.7548
34.9805
34.136
33.1952
32.1257
30.895
29.4858
27.9196
26.2625
24.5663
22.8631
21.1755
19.5294
17.9647
16.5331
15.2524
14.1111
13.0854
12.1501
11.2825
10.4644
9.68174
8.92386
8.18315
7.45415
6.73306
6.01724
5.30491
4.59486
3.88628
3.17865
2.47164
1.76505
1.05876
0.352686
38.9977
38.3913
37.7705
37.1232
36.4418
35.7182
34.9407
34.0915
33.1457
32.073
30.8436
29.4421
27.889
26.2465
24.5641
22.8736
21.1982
19.5639
18.0089
16.582
15.3005
14.1546
13.1224
12.1801
11.3059
10.4821
9.69471
8.93316
8.18965
7.45859
6.73601
6.01915
5.30611
4.59558
3.88669
3.17887
2.47173
1.76506
1.05873
0.352604
38.8726
38.2922
37.6892
37.0525
36.3754
35.6507
34.8675
34.0097
33.0551
31.9768
30.7498
29.3623
27.8336
26.2178
24.5604
22.8928
21.2395
19.6266
18.0895
16.6713
15.3886
14.2343
13.1902
12.235
11.3488
10.5145
9.71854
8.95022
8.20157
7.46671
6.74141
6.02264
5.30829
4.59689
3.88743
3.17925
2.4719
1.76509
1.05866
0.352457
38.6994
38.1567
37.5793
36.9582
36.2879
35.5627
34.773
33.905
32.9394
31.8545
30.6308
29.2615
27.7641
26.1822
24.5562
22.9176
21.2921
19.7061
18.1922
16.7852
15.5009
14.3362
13.2771
12.3056
11.404
10.5563
9.74923
8.97217
8.21688
7.47712
6.7483
6.02707
5.31103
4.59852
3.88834
3.17971
2.47208
1.7651
1.05857
0.352275
38.4944
37.9992
37.454
36.8528
36.1922
35.4679
34.6726
33.7947
32.8187
31.7278
30.5084
29.1578
27.6921
26.1451
24.5522
22.944
21.3475
19.7893
18.2985
16.9031
15.6179
14.4429
13.3685
12.3801
11.4623
10.6004
9.78158
8.99524
8.23289
7.48793
6.75539
6.03157
5.31378
4.6001
3.88919
3.1801
2.4722
1.76508
1.05846
0.352094
38.278
37.837
37.3287
36.7507
36.1022
35.3811
34.5822
33.6965
32.7122
31.6169
30.4019
29.0677
27.6287
26.1121
24.5487
22.9679
21.3971
19.8629
18.3915
17.0062
15.7206
14.5371
13.4494
12.4461
11.5139
10.6393
9.80993
9.01528
8.24663
7.49706
6.76124
6.03517
5.31588
4.60123
3.88971
3.18027
2.47218
1.76497
1.05832
0.351947
38.073
37.6894
37.2199
36.6666
36.0319
35.3162
34.5164
33.626
32.6361
31.5379
30.3262
29.0037
27.5836
26.0887
24.5468
22.986
21.4339
19.9166
18.4585
17.0801
15.7941
14.6044
13.5069
12.4927
11.5499
10.6659
9.82888
9.02827
8.25518
7.50243
6.76443
6.0369
5.31669
4.60148
3.88965
3.18006
2.47192
1.76473
1.05814
0.351855
37.9046
37.5762
37.144
36.6146
35.9941
35.2852
34.4873
33.5954
32.6029
31.503
30.2926
28.9756
27.5644
26.0801
24.5483
22.9967
21.4529
19.943
18.4905
17.1145
15.8275
14.6338
13.5309
12.5108
11.5626
10.6742
9.83373
9.03067
8.25595
7.50221
6.76366
6.03589
5.31562
4.60048
3.88876
3.17931
2.47132
1.76428
1.05787
0.351814
37.7967
37.5168
37.1172
36.6082
36.0001
35.2987
34.5049
33.6149
32.6227
31.522
30.3103
28.9916
27.5786
26.0916
24.5562
23.0002
21.4519
19.9378
18.4817
17.1026
15.813
14.6174
13.5136
12.4935
11.5461
10.6592
9.82064
9.01959
8.24682
7.49486
6.75787
6.03141
5.31221
4.59791
3.88686
3.1779
2.47029
1.76356
1.05744
0.351767
37.7635
37.5303
37.1559
36.6604
36.0604
35.3654
34.5775
33.693
32.7044
31.6042
30.3885
29.0609
27.634
26.1295
24.5744
22.9982
21.4302
19.8984
18.4278
17.0388
15.7441
14.5484
13.4483
12.4348
11.4955
10.617
9.78656
8.99275
8.22615
7.47926
6.7463
6.02297
5.30614
4.59361
3.88383
3.17578
2.46879
1.76248
1.05667
0.351493
37.9305
37.6565
37.2543
36.7414
36.1327
35.4359
34.6511
33.7723
32.7893
31.6916
30.4725
29.1341
27.6899
26.1638
24.5855
22.9862
21.3965
19.8456
18.36
16.9617
15.6645
14.4723
13.3802
12.3771
11.4488
10.5808
9.75933
8.97292
8.21211
7.46957
6.73979
6.01872
5.30344
4.59195
3.88286
3.17523
2.46848
1.76227
1.05649
0.351327
37.9652
37.6348
37.2021
36.6723
36.0525
35.3462
34.5521
33.6647
32.6755
31.5761
30.3619
29.0361
27.6115
26.1104
24.56
22.9895
21.4276
19.9018
18.4367
17.0525
15.7621
14.5697
13.4716
12.4587
11.5187
10.6385
9.80564
9.00915
8.23984
7.4904
6.75517
6.02989
5.31146
4.59763
3.88684
3.17802
2.47045
1.7637
1.0575
0.351727
38.0716
37.688
37.2185
36.6652
36.0304
35.3146
34.5146
33.624
32.634
31.5357
30.324
29.0015
27.5815
26.0869
24.5453
22.9849
21.4332
19.9162
18.4584
17.0801
15.7943
14.6046
13.5072
12.493
11.5501
10.6661
9.82909
9.02845
8.25533
7.50256
6.76453
6.03699
5.31675
4.60153
3.88969
3.18009
2.47195
1.76474
1.05814
0.351855
38.241