# vtk DataFile Version 2.0
I need something to put here
ASCII

DATASET STRUCTURED_GRID
DIMENSIONS 41 21 21
POINTS 18081 float
0.000000 0.000000 0.000000
0.100000 0.000000 0.000000
0.200000 0.000000 0.000000
0.300000 0.000000 0.000000
0.400000 0.000000 0.000000
0.500000 0.000000 0.000000
0.600000 0.000000 0.000000
0.700000 0.000000 0.000000
0.800000 0.000000 0.000000
0.900000 0.000000 0.000000
1.000000 0.000000 0.000000
1.100000 0.000000 0.000000
1.200000 0.000000 0.000000
1.300000 0.000000 0.000000
1.400000 0.000000 0.000000
1.500000 0.000000 0.000000
1.600000 0.000000 0.000000
1.700000 0.000000 0.000000
1.800000 0.000000 0.000000
1.900000 0.000000 0.000000
2.000000 0.000000 0.000000
2.100000 0.000000 0.000000
2.200000 0.000000 0.000000
2.300000 0.000000 0.000000
2.400000 0.000000 0.000000
2.500000 0.000000 0.000000
2.600000 0.000000 0.000000
2.700000 0.000000 0.000000
2.800000 0.000000 0.000000
2.900000 0.000000 0.000000
3.000000 0.000000 0.000000
3.100000 0.000000 0.000000
3.200000 0.000000 0.000000
3.300000 0.000000 0.000000
3.400000 0.000000 0.000000
3.500000 0.000000 0.000000
3.600000 0.000000 0.000000
3.700000 0.000000 0.000000
3.800000 0.000000 0.000000
3.900000 0.000000 0.000000
4.000000 0.000000 0.000000
0.000000 0.100000 0.000000
0.100000 0.100000 0.000000
0.200000 0.100000 0.000000
0.300000 0.100000 0.000000
0.400000 0.100000 0.000000
0.500000 0.100000 0.000000
0.600000 0.100000 0.000000
0.700000 0.100000 0.000000
0.800000 0.100000 0.000000
0.900000 0.100000 0.000000
1.000000 0.100000 0.000000
1.100000 0.100000 0.000000
1.200000 0.100000 0.000000
1.300000 0.100000 0.000000
1.400000 0.100000 0.000000
1.500000 0.100000 0.000000
1.600000 0.100000 0.000000
1.700000 0.100000 0.000000
1.800000 0.100000 0.000000
1.900000 0.100000 0.000000
2.000000 0.100000 0.000000
2.100000 0.100000 0.000000
2.200000 0.100000 0.000000
2.300000 0.100000 0.000000
2.400000 0.100000 0.000000
2.500000 0.100000 0.000000
2.600000 0.100000 0.000000
2.700000 0.100000 0.000000
2.800000 0.100000 0.000000
2.900000 0.100000 0.000000
3.000000 0.100000 0.000000
3.100000 0.100000 0.000000
3.200000 0.100000 0.000000
3.300000 0.100000 0.000000
3.400000 0.100000 0.000000
3.500000 0.100000 0.000000
3.600000 0.100000 0.000000
3.700000 0.100000 0.000000
3.800000 0.100000 0.000000
3.900000 0.100000 0.000000
4.000000 0.100000 0.000000
0.000000 0.200000 0.000000
0.100000 0.200000 0.000000
0.200000 0.200000 0.000000
0.300000 0.200000 0.000000
0.400000 0.200000 0.000000
0.500000 0.200000 0.000000
0.600000 0.200000 0.000000
0.700000 0.200000 0.000000
0.800000 0.200000 0.000000
0.900000 0.200000 0.000000
1.000000 0.200000 0.000000
1.100000 0.200000 0.000000
1.200000 0.200000 0.000000
1.300000 0.200000 0.000000
1.400000 0.200000 0.000000
1.500000 0.200000 0.000000
1.600000 0.200000 0.000000
1.700000 0.200000 0.000000
1.800000 0.200000 0.000000
1.900000 0.200000 0.000000
2.000000 0.200000 0.000000
2.100000 0.200000 0.000000
2.200000 0.200000 0.000000
2.300000 0.200000 0.000000
2.400000 0.200000 0.000000
2.500000 0.200000 0.000000
2.600000 0.200000 0.000000
2.700000 0.200000 0.000000
2.800000 0.200000 0.000000
2.900000 0.200000 0.000000
3.000000 0.200000 0.000000
3.100000 0.200000 0.000000
3.200000 0.200000 0.000000
3.300000 0.200000 0.000000
3.400000 0.200000 0.000000
3.500000 0.200000 0.000000
3.600000 0.200000 0.000000
3.700000 0.200000 0.000000
3.800000 0.200000 0.000000
3.900000 0.200000 0.000000
4.000000 0.200000 0.000000
0.000000 0.300000 0.000000
0.100000 0.300000 0.000000
0.200000 0.300000 0.000000
0.300000 0.300000 0.000000
0.400000 0.300000 0.000000
0.500000 0.300000 0.000000
0.600000 0.300000 0.000000
0.700000 0.300000 0.000000
0.800000 0.300000 0.000000
0.900000 0.300000 0.000000
1.000000 0.300000 0.000000
1.100000 0.300000 0.000000
1.200000 0.300000 0.000000
1.300000 0.300000 0.000000
1.400000 0.300000 0.000000
1.500000 0.300000 0.000000
1.600000 0.300000 0.000000
1.700000 0.300000 0.000000
1.800000 0.300000 0.000000
1.900000 0.300000 0.000000
2.000000 0.300000 0.000000
2.100000 0.300000 0.000000
2.200000 0.300000 0.000000
2.300000 0.300000 0.000000
2.400000 0.300000 0.000000
2.500000 0.300000 0.000000
2.600000 0.300000 0.000000
2.700000 0.300000 0.000000
2.800000 0.300000 0.000000
2.900000 0.300000 0.000000
3.000000 0.300000 0.000000
3.100000 0.300000 0.000000
3.200000 0.300000 0.000000
3.300000 0.300000 0.000000
3.400000 0.300000 0.000000
3.500000 0.300000 0.000000
3.600000 0.300000 0.000000
3.700000 0.300000 0.000000
3.800000 0.300000 0.000000
3.900000 0.300000 0.000000
4.000000 0.300000 0.000000
0.000000 0.400000 0.000000
0.100000 0.400000 0.000000
0.200000 0.400000 0.000000
0.300000 0.400000 0.000000
0.400000 0.400000 0.000000
0.500000 0.400000 0.000000
0.600000 0.400000 0.000000
0.700000 0.400000 0.000000
0.800000 0.400000 0.000000
0.900000 0.400000 0.000000
1.000000 0.400000 0.000000
1.100000 0.400000 0.000000
1.200000 0.400000 0.000000
1.300000 0.400000 0.000000
1.400000 0.400000 0.000000
1.500000 0.400000 0.000000
1.600000 0.400000 0.000000
1.700000 0.400000 0.000000
1.800000 0.400000 0.000000
1.900000 0.400000 0.000000
2.000000 0.400000 0.000000
2.100000 0.400000 0.000000
2.200000 0.400000 0.000000
2.300000 0.400000 0.000000
2.400000 0.400000 0.000000
2.500000 0.400000 0.000000
2.600000 0.400000 0.000000
2.700000 0.400000 0.000000
2.800000 0.400000 0.000000
2.900000 0.400000 0.000000
3.000000 0.400000 0.000000
3.100000 0.400000 0.000000
3.200000 0.400000 0.000000
3.300000 0.400000 0.000000
3.400000 0.400000 0.000000
3.500000 0.400000 0.000000
3.600000 0.400000 0.000000
3.700000 0.400000 0.000000
3.800000 0.400000 0.000000
3.900000 0.400000 0.000000
4.000000 0.400000 0.000000
0.000000 0.500000 0.000000
0.100000 0.500000 0.000000
0.200000 0.500000 0.000000
0.300000 0.500000 0.000000
0.400000 0.500000 0.000000
0.500000 0.500000 0.000000
0.600000 0.500000 0.000000
0.700000 0.500000 0.000000
0.800000 0.500000 0.000000
0.900000 0.500000 0.000000
1.000000 0.500000 0.000000
1.100000 0.500000 0.000000
1.200000 0.500000 0.000000
1.300000 0.500000 0.000000
1.400000 0.500000 0.000000
1.500000 0.500000 0.000000
1.600000 0.500000 0.000000
1.700000 0.500000 0.000000
1.800000 0.500000 0.000000
1.900000 0.500000 0.000000
2.000000 0.500000 0.000000
2.100000 0.500000 0.000000
2.200000 0.500000 0.000000
2.300000 0.500000 0.000000
2.400000 0.500000 0.000000
2.500000 0.500000 0.000000
2.600000 0.500000 0.000000
2.700000 0.500000 0.000000
2.800000 0.500000 0.000000
2.900000 0.500000 0.000000
3.000000 0.500000 0.000000
3.100000 0.500000 0.000000
3.200000 0.500000 0.000000
3.300000 0.500000 0.000000
3.400000 0.500000 0.000000
3.500000 0.500000 0.000000
3.600000 0.500000 0.000000
3.700000 0.500000 0.000000
3.800000 0.500000 0.000000
3.900000 0.500000 0.000000
4.000000 0.500000 0.000000
0.000000 0.600000 0.000000
0.100000 0.600000 0.000000
0.200000 0.600000 0.000000
0.300000 0.600000 0.000000
0.400000 0.600000 0.000000
0.500000 0.600000 0.000000
0.600000 0.600000 0.000000
0.700000 0.600000 0.000000
0.800000 0.600000 0.000000
0.900000 0.600000 0.000000
1.000000 0.600000 0.000000
1.100000 0.600000 0.000000
1.200000 0.600000 0.000000
1.300000 0.600000 0.000000
1.400000 0.600000 0.000000
1.500000 0.600000 0.000000
1.600000 0.600000 0.000000
1.700000 0.600000 0.000000
1.800000 0.600000 0.000000
1.900000 0.600000 0.000000
2.000000 0.600000 0.000000
2.100000 0.600000 0.000000
2.200000 0.600000 0.000000
2.300000 0.600000 0.000000
2.400000 0.600000 0.000000
2.500000 0.600000 0.000000
2.600000 0.600000 0.000000
2.700000 0.600000 0.000000
2.800000 0.600000 0.000000
2.900000 0.600000 0.000000
3.000000 0.600000 0.000000
3.100000 0.600000 0.000000
3.200000 0.600000 0.000000
3.300000 0.600000 0.000000
3.400000 0.600000 0.000000
3.500000 0.600000 0.000000
3.600000 0.600000 0.000000
3.700000 0.600000 0.000000
3.800000 0.600000 0.000000
3.900000 0.600000 0.000000
4.000000 0.600000 0.000000
0.000000 0.700000 0.000000
0.100000 0.700000 0.000000
0.200000 0.700000 0.000000
0.300000 0.700000 0.000000
0.400000 0.700000 0.000000
0.500000 0.700000 0.000000
0.600000 0.700000 0.000000
0.700000 0.700000 0.000000
0.800000 0.700000 0.000000
0.900000 0.700000 0.000000
1.000000 0.700000 0.000000
1.100000 0.700000 0.000000
1.200000 0.700000 0.000000
1.300000 0.700000 0.000000
1.400000 0.700000 0.000000
1.500000 0.700000 0.000000
1.600000 0.700000 0.000000
1.700000 0.700000 0.000000
1.800000 0.700000 0.000000
1.900000 0.700000 0.000000
2.000000 0.700000 0.000000
2.100000 0.700000 0.000000
2.200000 0.700000 0.000000
2.300000 0.700000 0.000000
2.400000 0.700000 0.000000
2.500000 0.700000 0.000000
2.600000 0.700000 0.000000
2.700000 0.700000 0.000000
2.800000 0.700000 0.000000
2.900000 0.700000 0.000000
3.000000 0.700000 0.000000
3.100000 0.700000 0.000000
3.200000 0.700000 0.000000
3.300000 0.700000 0.000000
3.400000 0.700000 0.000000
3.500000 0.700000 0.000000
3.600000 0.700000 0.000000
3.700000 0.700000 0.000000
3.800000 0.700000 0.000000
3.900000 0.700000 0.000000
4.000000 0.700000 0.000000
0.000000 0.800000 0.000000
0.100000 0.800000 0.000000
0.200000 0.800000 0.000000
0.300000 0.800000 0.000000
0.400000 0.800000 0.000000
0.500000 0.800000 0.000000
0.600000 0.800000 0.000000
0.700000 0.800000 0.000000
0.800000 0.800000 0.000000
0.900000 0.800000 0.000000
1.000000 0.800000 0.000000
1.100000 0.800000 0.000000
1.200000 0.800000 0.000000
1.300000 0.800000 0.000000
1.400000 0.800000 0.000000
1.500000 0.800000 0.000000
1.600000 0.800000 0.000000
1.700000 0.800000 0.000000
1.800000 0.800000 0.000000
1.900000 0.800000 0.000000
2.000000 0.800000 0.000000
2.100000 0.800000 0.000000
2.200000 0.800000 0.000000
2.300000 0.800000 0.000000
2.400000 0.800000 0.000000
2.500000 0.800000 0.000000
2.600000 0.800000 0.000000
2.700000 0.800000 0.000000
2.800000 0.800000 0.000000
2.900000 0.800000 0.000000
3.000000 0.800000 0.000000
3.100000 0.800000 0.000000
3.200000 0.800000 0.000000
3.300000 0.800000 0.000000
3.400000 0.800000 0.000000
3.500000 0.800000 0.000000
3.600000 0.800000 0.000000
[...]
CELL_DATA 16000
SCALARS pressure float 1
LOOKUP_TABLE default
36.6959
36.5213
36.1831
35.7108
35.1271
34.4455
33.6713
32.8039
31.8392
30.7725
29.6023
28.3328
26.9752
25.5478
24.0741
22.5798
21.0914
19.6341
18.2302
16.8976
15.648
14.486
13.4097
12.4121
11.4829
10.6106
9.78359
8.99167
8.22603
7.47956
6.74674
6.02342
5.30654
4.59394
3.8841
3.176
2.46899
1.76269
1.05695
0.35186
36.7504
36.5512
36.1994
35.7197
35.132
34.4484
33.6736
32.8063
31.842
30.7758
29.6058
28.3359
26.9775
25.5491
24.0742
22.5789
21.0895
19.6314
18.2269
16.8941
15.6447
14.4832
13.4077
12.4109
11.4824
10.6106
9.78399
8.99229
8.22673
7.48027
6.7474
6.02399
5.30702
4.59433
3.88441
3.17625
2.46918
1.76281
1.05699
0.351777
36.8715
36.6369
36.2622
35.7683
35.1729
34.4864
33.7119
32.8469
31.8852
30.8203
29.6488
28.3738
27.007
25.568
24.0815
22.5745
21.0742
19.6063
18.1942
16.8566
15.6057
14.4458
13.3741
12.3824
11.4594
10.5928
9.77071
8.98269
8.22001
7.4757
6.74439
6.02208
5.30585
4.59365
3.88404
3.17606
2.46908
1.76274
1.05687
0.351604
37.0388
36.7632
36.3601
35.8484
35.2436
34.5545
33.7824
32.9224
31.9659
30.9033
29.7287
28.444
27.0613
25.6023
24.0941
22.5654
21.0445
19.5585
18.1321
16.7856
15.5321
14.3752
13.3108
12.3286
11.4158
10.5588
9.74514
8.96402
8.20675
7.46652
6.7382
6.01801
5.30326
4.59205
3.88309
3.17551
2.46877
1.76253
1.0567
0.351448
37.2316
36.9146
36.4816
35.9511
35.3372
34.647
33.8798
33.0279
32.0794
31.0205
29.8417
28.5429
27.1371
25.6493
24.1103
22.5509
21.0012
19.4894
18.0427
16.6838
15.4268
14.2748
13.221
12.2527
11.3545
10.5111
9.70926
8.93781
8.18811
7.45358
6.72943
6.01221
5.29952
4.58971
3.88167
3.17468
2.46829
1.76224
1.05651
0.35134
37.4298
37.075
36.6138
36.0657
35.4442
34.7549
33.9951
33.1543
32.2163
31.1626
29.979
28.6628
27.2284
25.7052
24.1285
22.532
20.9472
19.4042
17.9326
16.5587
15.2982
14.1527
13.1125
12.1614
11.281
10.4542
9.66658
8.90671
8.16601
7.43824
6.71903
6.00532
5.29506
4.5869
3.87996
3.17367
2.46771
1.76193
1.05634
0.351284
37.6146
37.228
36.7426
36.1796
35.5525
34.866
34.1154
33.2874
32.3616
31.3143
30.1259
28.7911
27.3255
25.7641
24.147
22.511
20.8889
19.3122
17.8139
16.4241
15.1602
14.0224
12.9973
12.065
11.2038
10.3947
9.62209
8.87436
8.14307
7.42235
6.70825
5.99818
5.29044
4.584
3.87818
3.17263
2.46713
1.76162
1.05621
0.351272
37.7696
37.3583
36.854
36.2797
35.6492
34.9663
34.2252
33.41
32.4963
31.4555
30.2632
28.911
27.4161
25.8186
24.1639
22.4911
20.8342
19.2261
17.7027
16.2983
15.0316
13.9014
12.8909
11.9762
11.133
10.3403
9.58158
8.84499
8.12228
7.40797
6.69852
5.99173
5.28628
4.58137
3.87658
3.17169
2.46661
1.76136
1.05611
0.351287
37.8811
37.4531
36.936
36.3541
35.7218
35.0425
34.3091
33.5041
32.6003
31.565
30.3698
29.0042
27.4866
25.8611
24.177
22.4756
20.7917
19.1591
17.6164
16.2006
14.932
13.808
12.809
11.9082
11.0789
10.2988
9.55074
8.82267
8.10651
7.39707
6.69115
5.98685
5.28312
4.57938
3.87537
3.17098
2.46621
1.76117
1.05605
0.351309
37.9394
37.503
36.9794
36.3939
35.7608
35.0836
34.3546
33.5554
32.657
31.6248
30.4282
29.0554
27.5253
25.8844
24.1843
22.4673
20.7685
19.1226
17.5692
16.1473
14.8777
13.7571
12.7644
11.8712
11.0496
10.2763
9.53407
8.81063
8.09801
7.3912
6.68718
5.98423
5.28143
4.57832
3.87472
3.1706
2.466
1.76107
1.05601
0.351324
37.9396
37.5031
36.9796
36.394
35.761
35.0837
34.3548
33.5556
32.6572
31.6251
30.4285
29.0556
27.5255
25.8847
24.1845
22.4675
20.7687
19.1228
17.5694
16.1475
14.8779
13.7572
12.7645
11.8712
11.0496
10.2764
9.53407
8.81062
8.098
7.39119
6.68717
5.98422
5.28142
4.57831
3.87471
3.17059
2.466
1.76107
1.05601
0.351321
37.8815
37.4535
36.9364
36.3546
35.7223
35.043
34.3097
33.5048
32.6009
31.5657
30.3706
29.005
27.4873
25.8618
24.1777
22.4762
20.7923
19.1596
17.6168
16.201
14.9323
13.8082
12.8091
11.9082
11.079
10.2988
9.55074
8.82266
8.1065
7.39705
6.69113
5.98684
5.28311
4.57937
3.87536
3.17097
2.46621
1.76116
1.05604
0.351303
37.7703
37.3591
36.8548
36.2805
35.65
34.9672
34.2261
33.411
32.4974
31.4567
30.2645
28.9122
27.4174
25.8198
24.1649
22.492
20.835
19.2268
17.7033
16.2988
15.032
13.9016
12.8911
11.9763
11.1331
10.3403
9.58156
8.84497
8.12225
7.40794
6.69849
5.99171
5.28625
4.58135
3.87656
3.17167
2.46659
1.76135
1.0561
0.351277
37.6156
37.229
36.7436
36.1806
35.5536
34.8671
34.1167
33.2888
32.3632
31.3159
30.1277
28.7928
27.3272
25.7656
24.1484
22.5122
20.8898
19.313
17.8145
16.4246
15.1605
14.0226
12.9975
12.065
11.2038
10.3946
9.62205
8.87432
8.14302
7.4223
6.70821
5.99814
5.29041
4.58397
3.87816
3.17261
2.46711
1.76161
1.05619
0.351259
37.431
37.0762
36.6151
36.0669
35.4455
34.7563
33.9966
33.156
32.2182
31.1646
29.9811
28.6648
27.2304
25.707
24.1301
22.5333
20.9483
19.4049
17.9332
16.5591
15.2984
14.1528
13.1125
12.1614
11.2809
10.4541
9.66651
8.90664
8.16594
7.43818
6.71897
6.00527
5.29502
4.58687
3.87993
3.17365
2.4677
1.76191
1.05633
0.351269
37.233
36.916
36.483
35.9525
35.3388
34.6487
33.8815
33.0299
32.0815
31.0228
29.844
28.5452
27.1393
25.6513
24.112
22.5523
21.0022
19.4902
18.0432
16.6841
15.4269
14.2748
13.221
12.2526
11.3544
10.511
9.70915
8.93771
8.18802
7.4535
6.72936
6.01215
5.29947
4.58967
3.88164
3.17466
2.46827
1.76223
1.05649
0.351324
37.0403
36.7647
36.3616
35.8499
35.2453
34.5563
33.7843
32.9245
31.9681
30.9057
29.7312
28.4465
27.0636
25.6044
24.0959
22.5668
21.0456
19.5592
18.1325
16.7858
15.5321
14.3752
13.3107
12.3285
11.4157
10.5587
9.74499
8.96389
8.20664
7.46643
6.73812
6.01794
5.3032
4.59201
3.88305
3.17549
2.46875
1.76251
1.05668
0.351433
36.8731
36.6385
36.2638
35.77
35.1746
34.4882
33.7139
32.8491
31.8876
30.8228
29.6513
28.3763
27.0094
25.5701
24.0833
22.5759
21.0752
19.607
18.1946
16.8567
15.6056
14.4457
13.3739
12.3822
11.4592
10.5926
9.77054
8.98255
8.21989
7.4756
6.7443
6.02201
5.3058
4.59361
3.88401
3.17603
2.46906
1.76272
1.05686
0.351592
36.752
36.5528
36.201
35.7213
35.1337
34.4503
33.6756
32.8085
31.8444
30.7783
29.6083
28.3384
26.9799
25.5512
24.076
22.5803
21.0905
19.6321
18.2273
16.8942
15.6446
14.4831
13.4075
12.4107
11.4822
10.6104
9.78381
8.99213
8.2266
7.48016
6.74731
6.02392
5.30696
4.59428
3.88437
3.17622
2.46915
1.7628
1.05698
0.351768
36.6975
36.5229
36.1846
35.7124
35.1288
34.4473
33.6733
32.8061
31.8415
30.7749
29.6048
28.3352
26.9775
25.5499
24.0758
22.5812
21.0924
19.6347
18.2305
16.8977
15.6479
14.4858
13.4095
12.4119
11.4827
10.6104
9.78341
8.99151
8.22589
7.47945
6.74665
6.02334
5.30648
4.59389
3.88406
3.17597
2.46897
1.76268
1.05694
0.351855
36.7504
36.5512
36.1994
35.7197
35.132
34.4484
33.6736
32.8063
31.842
30.7758
29.6058
28.3359
26.9775
25.5491
24.0742
22.5789
21.0895
19.6314
18.2269
16.8941
15.6447
14.4832
13.4077
12.4109
11.4824
10.6106
9.784
8.99229
8.22674
7.48027
6.7474
6.02399
5.30702
4.59433
3.88441
3.17625
2.46918
1.76281
1.05699
0.351777
36.791
36.5542
36.1828
35.6933
35.1004
34.4134
33.6358
32.7663
31.8007
30.7347
29.5669
28.3015
26.9499
25.53
24.0647
22.5792
21.0996
19.6502
18.2529
16.9252
15.6784
14.5174
13.4404
12.4406
11.5084
10.6325
9.80188
9.00653
8.23781
7.48871
6.75372
6.02864
5.31039
4.59674
3.88612
3.17745
2.47003
1.76343
1.05742
0.351901
36.9062
36.6247
36.2251
35.7185
35.1157
34.4235
33.6439
32.7742
31.8094
30.7441
29.5762
28.3096
26.9555
25.5326
24.0642
22.5759
21.0937
19.6422
18.2435
16.9152
15.669
14.5094
13.4343
12.4367
11.5063
10.6319
9.80231
9.00761
8.23922
7.49021
6.75516
6.02994
5.31151
4.59767
3.88687
3.17805
2.47049
1.76375
1.05759
0.351864
37.0754
36.7431
36.3102
35.7825
35.1677
34.4702
33.6899
32.8223
31.8602
30.7962
29.6262
28.353
26.9883
25.5522
24.0698
22.5677
21.0726
19.6098
18.2024
16.8691
15.6219
14.465
13.3952
12.4041
11.4805
10.6123
9.78809
8.99766
8.23253
7.4859
6.75252
6.02843
5.31073
4.59735
3.88681
3.17812
2.47061
1.76387
1.05764
0.351824
37.2745
36.8907
36.423
35.8733
35.2464
34.5446
33.7657
32.9026
31.9454
30.8833
29.7096
28.4253
27.0428
25.5849
24.0793
22.5544
21.038
19.5564
18.1343
16.7923
15.5432
14.3904
13.3289
12.3483
11.4357
10.5777
9.76233
8.97907
8.21951
7.47705
6.74668
6.0247
5.30845
4.59602
3.88609
3.17777
2.47047
1.76383
1.05764
0.351824
37.4806
37.0492
36.5487
35.9782
35.3406
34.6362
33.8606
33.0044
32.0539
30.9948
29.8164
28.5177
27.1122
25.6262
24.091
22.5371
20.9935
19.4877
18.0466
16.6934
15.4421
14.2947
13.244
12.2769
11.3783
10.5333
9.72904
8.95487
8.20239
7.46526
6.73877
6.01955
5.3052
4.59404
3.88495
3.17715
2.47017
1.7637
1.05762
0.351868
37.6733
37.2011
36.6723
36.084
35.4378
34.7325
33.9619
33.114
32.1717
31.1164
29.9333
28.6189
27.1877
25.6708
24.1033
22.518
20.9449
19.4126
17.9504
16.5851
15.3316
14.1906
13.152
12.1998
11.3163
10.4853
9.69312
8.92871
8.18384
7.45242
6.73011
6.01385
5.30155
4.59179
3.88361
3.1764
2.46979
1.76354
1.05759
0.351944
37.8349
37.3307
36.7796
36.1775
35.5251
34.8203
34.0553
33.2158
32.2818
31.2307
30.0434
28.7143
27.2588
25.7125
24.1148
22.5
20.8992
19.3419
17.8598
16.4831
15.2278
14.0932
13.0662
12.128
11.2589
10.441
9.6599
8.90453
8.16668
7.44053
6.72206
6.00854
5.29814
4.58966
3.88234
3.17568
2.46941
1.76338
1.05757
0.352031
37.9512
37.4251
36.8586
36.2471
35.5909
34.8871
34.1269
33.2944
32.3672
31.3195
30.1293
28.7888
27.3143
25.7452
24.1238
22.4861
20.8637
19.2869
17.7893
16.4039
15.1474
14.0178
13
12.0728
11.2147
10.4069
9.63443
8.88599
8.15352
7.43141
6.71588
6.00446
5.29551
4.58802
3.88135
3.17512
2.46911
1.76326
1.05756
0.352105
38.012
37.4748
36.9005
36.2843
35.6263
34.9232
34.1657
33.3372
32.4138
31.3681
30.1764
28.8297
27.3449
25.7633
24.1289
22.4787
20.8444
19.2568
17.7509
16.3607
15.1035
13.9768
12.964
12.0428
11.1907
10.3884
9.62062
8.87595
8.14639
7.42647
6.71254
6.00224
5.29408
4.58712
3.88081
3.17481
2.46895
1.76319
1.05756
0.352148
38.0122
37.4749
36.9007
36.2845
35.6264
34.9233
34.1659
33.3373
32.414
31.3683
30.1766
28.8299
27.3451
25.7635
24.1291
22.4789
20.8445
19.257
17.751
16.3608
15.1036
13.9768
12.964
12.0428
11.1907
10.3884
9.62062
8.87595
8.14639
7.42646
6.71253
6.00223
5.29407
4.58712
3.8808
3.1748
2.46895
1.76319
1.05756
0.352147
37.9517
37.4255
36.8591
36.2476
35.5914
34.8876
34.1274
33.2949
32.3678
31.3202
30.13
28.7895
27.315
25.7458
24.1244
22.4867
20.8642
19.2873
17.7897
16.4042
15.1476
14.018
13.0001
12.0728
11.2147
10.4069
9.63442
8.88598
8.1535
7.43139
6.71587
6.00444
5.29549
4.58801
3.88134
3.17511
2.46911
1.76326
1.05756
0.352104
37.8357
37.3315
36.7803
36.1782
35.5259
34.8211
34.0562
33.2168
32.2829
31.2318
30.0446
28.7154
27.2599
25.7136
24.1157
22.5009
20.8999
19.3425
17.8604
16.4836
15.2282
14.0934
13.0664
12.1281
11.2589
10.441
9.65989
8.9045
8.16665
7.4405
6.72203
6.00851
5.29812
4.58964
3.88232
3.17567
2.4694
1.76338
1.05757
0.352028
37.6743
37.2021
36.6733
36.085
35.4388
34.7336
33.9631
33.1153
32.1731
31.118
29.9348
28.6204
27.1893
25.6722
24.1046
22.5191
20.9457
19.4133
17.951
16.5855
15.3319
14.1908
13.1521
12.1998
11.3163
10.4853
9.69308
8.92867
8.18379
7.45238
6.73007
6.01382
5.30152
4.59176
3.88359
3.17639
2.46978
1.76354
1.05759
0.35194
37.4818
37.0504
36.55
35.9795
35.3419
34.6376
33.8621
33.006
32.0557
30.9967
29.8183
28.5196
27.1141
25.6279
24.0925
22.5383
20.9944
19.4884
18.0471
16.6938
15.4423
14.2949
13.2441
12.2769
11.3782
10.5332
9.72897
8.9548
8.20233
7.4652
6.73872
6.0195
5.30516
4.59401
3.88492
3.17714
2.47016
1.7637
1.05762
0.351863
37.2759
36.8921
36.4244
35.8747
35.2479
34.5462
33.7674
32.9045
31.9474
30.8855
29.7117
28.4274
27.0449
25.5868
24.0809
22.5557
21.039
19.5571
18.1347
16.7925
15.5433
14.3904
13.3289
12.3482
11.4356
10.5776
9.76223
8.97897
8.21942
7.47697
6.74661
6.02465
5.30841
4.59598
3.88607
3.17776
2.47046
1.76382
1.05764
0.351818
37.0769
36.7446
36.3117
35.784
35.1693
34.472
33.6918
32.8244
31.8624
30.7985
29.6286
28.3553
26.9905
25.5542
24.0715
22.569
21.0736
19.6105
18.2028
16.8693
15.622
14.465
13.3951
12.4039
11.4803
10.6122
9.78795
8.99754
8.23242
7.48581
6.75244
6.02836
5.31068
4.5973
3.88678
3.1781
2.47059
1.76386
1.05765
0.351818
36.9077
36.6263
36.2267
35.7201
35.1174
34.4253
33.6458
32.7763
31.8116
30.7465
29.5787
28.312
26.9578
25.5346
24.0659
22.5772
21.0947
19.6429
18.2438
16.9154
15.669
14.5093
13.4342
12.4365
11.5061
10.6317
9.80215
9.00747
8.2391
7.49011
6.75508
6.02987
5.31146
4.59763
3.88684
3.17802
2.47047
1.76374
1.05759
0.351857
36.7926
36.5557
36.1844
35.6949
35.1021
34.4152
33.6378
32.7684
31.803
30.7371
29.5694
28.304
26.9522
25.532
24.0664
22.5806
21.1006
19.6508
18.2533
16.9253
15.6784
14.5173
13.4402
12.4404
11.5081
10.6323
9.8017
9.00638
8.23768
7.4886
6.75363
6.02857
5.31033
4.5967
3.88608
3.17742
2.47001
1.76342
1.05741
0.351894
36.752
36.5527
36.2009
35.7212
35.1336
34.4502
33.6755
32.8084
31.8443
30.7782
29.6083
28.3383
26.9798
25.5512
24.076
22.5802
21.0905
19.632
18.2273
16.8942
15.6446
14.4831
13.4075
12.4107
11.4822
10.6104
9.78381
8.99213
8.2266
7.48016
6.74731
6.02392
5.30697
4.59429
3.88438
3.17622
2.46916
1.7628
1.05699
0.351774
36.8715
36.6369
36.2622
35.7683
35.1729
34.4864
33.7119
32.8469
31.8852
30.8203
29.6487
28.3737
27.007
25.568
24.0815
22.5745
21.0742
19.6063
18.1942
16.8566
15.6057
14.4458
13.3742
12.3825
11.4595
10.5928
9.77073
8.98271
8.22003
7.47571
6.7444
6.02208
5.30586
4.59365
3.88405
3.17606
2.46908
1.76274
1.05688
0.351605
36.9062
36.6247
36.2251
35.7185
35.1157
34.4235
33.6439
32.7742
31.8093
30.744
29.5762
28.3095
26.9555
25.5325
24.0641
22.5759
21.0937
19.6422
18.2435
16.9152
15.6691
14.5095
13.4344
12.4367
11.5063
10.6319
9.80232
9.00762
8.23923
7.49022
6.75517
6.02995
5.31152
4.59768
3.88688
3.17805
2.47049
1.76375
1.05759
0.351864
37.0151
36.6847
36.2525
35.7256
35.1106
34.4112
33.6275
32.756
31.7909
30.7263
29.5598
28.2947
26.9424
25.522
24.057
22.5727
21.0947
19.647
18.2515
16.9261
15.6824
14.5245
13.4503
12.4526
11.5214
10.6457
9.81439
9.01786
8.24767
7.49702
6.76053
6.0341
5.31468
4.60006
3.88865
3.17936
2.47144
1.76443
1.05799
0.351906
37.1833
36.7973
36.3277
35.7768
35.1474
34.4408
33.6549
32.7844
31.8215
30.7586
29.5909
28.3209
26.9605
25.5306
24.0562
22.5634
21.0776
19.623
18.2223
16.8945
15.6516
14.4973
13.4281
12.4357
11.5095
10.6379
9.8098
9.01555
8.24689
7.49718
6.76121
6.03502
5.31566
4.60099
3.88947
3.18005
2.47201
1.76484
1.05824
0.351943
37.3865
36.9431
36.4346
35.8587
35.2151
34.5025
33.7167
32.8501
31.8921
30.8317
29.661
28.3806
27.0031
25.5533
24.0591
22.5478
21.0446
19.5743
18.1611
16.8267
15.5839
14.4351
13.3748
12.3925
11.4761
10.6131
9.79211
9.00339
8.23887
7.49212
6.7582
6.03337
5.31487
4.60073
3.88951
3.18024
2.47224
1.76507
1.05841
0.352028
37.6
37.1026
36.5572
35.9577
35.3013
34.5847
33.8014
32.9414
31.9908
30.9344
29.7599
28.4646
27.0629
25.5852
24.0639
22.5271
20.9999
19.5072
18.0759
16.732
15.4893
14.3482
13.2999
12.3313
11.4282
10.5769
9.76568
8.98468
8.22602
7.48357
6.7527
6.02997
5.31289
4.59965
3.889
3.18007
2.47225
1.76516
1.05854
0.352165
37.8014
37.257
36.6793
36.0595
35.3928
34.6742
33.8954
33.0439
32.1027
31.0519
29.8736
28.5614
27.1309
25.6212
24.0693
22.5041
20.9498
19.4313
17.9784
16.6235
15.3814
14.2496
13.2153
12.2623
11.374
10.5359
9.73555
8.96316
8.21105
7.47344
6.74604
6.02573
5.31029
4.59814
3.88819
3.17968
2.47212
1.76518
1.05864
0.352334
37.9712
37.3895
36.7862
36.1504
35.4762
34.7572
33.9838
33.1414
32.21
31.1653
29.9842
28.6557
27.1967
25.6559
24.0748
22.4826
20.9023
19.3586
17.8842
16.5187
15.2778
14.1554
13.1349
12.1968
11.3227
10.497
9.70697
8.94268
8.19675
7.4637
6.73958
6.02157
5.30771
4.5966
3.88733
3.17924
2.47194
1.76515
1.05872
0.352503
38.0937
37.4862
36.8652
36.2186
35.5396
34.821
34.0523
33.2175
32.2942
31.2547
30.0716
28.7305
27.2493
25.6839
24.0796
22.4659
20.865
19.3012
17.8101
16.4364
15.1965
14.0817
13.0721
12.1458
11.2829
10.4669
9.68477
8.92676
8.18561
7.45609
6.73451
6.01829
5.30565
4.59536
3.88662
3.17888
2.47178
1.76513
1.05878
0.35264
38.1579
37.5372
36.9071
36.2551
35.5738
34.8557
34.0897
33.2592
32.3404
31.3038
30.1197
28.7717
27.2785
25.6997
24.0825
22.4569
20.8445
19.2698
17.7696
16.3915
15.1522
14.0415
13.0379
12.118
11.2612
10.4505
9.67268
8.91809
8.17953
7.45193
6.73174
6.01649
5.30451
4.59467
3.88622
3.17867
2.47169
1.76511
1.05881
0.352717
38.1581
37.5374
36.9073
36.2552
35.5739
34.8558
34.0899
33.2594
32.3406
31.304
30.1199
28.7719
27.2787
25.6999
24.0827
22.4571
20.8447
19.27
17.7698
16.3917
15.1523
14.0416
13.0379
12.1181
11.2612
10.4505
9.67268
8.91808
8.17953
7.45193
6.73173
6.01649
5.30451
4.59467
3.88622
3.17866
2.47169
1.7651
1.05881
0.352717
38.0942
37.4867
36.8656
36.2191
35.5401
34.8215
34.0529
33.2181
32.2948
31.2553
30.0722
28.7312
27.2499
25.6845
24.0802
22.4664
20.8655
19.3017
17.8105
16.4368
15.1968
14.0819
13.0722
12.1459
11.2829
10.4669
9.68477
8.92675
8.18559
7.45607
6.7345
6.01828
5.30563
4.59535
3.88661
3.17887
2.47177
1.76512
1.05878
0.35264
37.972
37.3903
36.7869
36.1512
35.477
34.758
33.9847
33.1424
32.211
31.1664
29.9853
28.6569
27.1978
25.6569
24.0757
22.4834
20.903
19.3592
17.8848
16.5192
15.2781
14.1556
13.135
12.1969
11.3228
10.497
9.70695
8.94265
8.19672
7.46367
6.73955
6.02155
5.30768
4.59658
3.88731
3.17923
2.47193
1.76515
1.05872
0.352503
37.8025
37.258
36.6803
36.0605
35.3938
34.6753
33.8966
33.0452
32.1041
31.0534
29.8752
28.563
27.1324
25.6226
24.0705
22.5051
20.9507
19.432
17.979
16.6239
15.3817
14.2498
13.2154
12.2623
11.374
10.5359
9.73551
8.96311
8.211
7.47339
6.746
6.0257
5.31026
4.59812
3.88817
3.17967
2.47211
1.76517
1.05864
0.352334
37.6013
37.1039
36.5584
35.9589
35.3026
34.586
33.8029
32.943
31.9925
30.9363
29.7618
28.4666
27.0647
25.5869
24.0653
22.5282
21.0008
19.5078
18.0763
16.7323
15.4895
14.3483
13.2999
12.3313
11.4281
10.5768
9.76561
8.98461
8.22595
7.4835
6.75264
6.02992
5.31285
4.59962
3.88897
3.18004
2.47223
1.76515
1.05854
0.352165
37.3879
36.9445
36.436
35.8601
35.2166
34.5041
33.7184
32.8519
31.8941
30.8338
29.6632
28.3827
27.0052
25.5551
24.0607
22.549
21.0455
19.5749
18.1615
16.8269
15.584
14.4351
13.3747
12.3925
11.476
10.613
9.792
9.00329
8.23878
7.49204
6.75813
6.03331
5.31483
4.60069
3.88948
3.18022
2.47222
1.76505
1.05841
0.352028
37.1849
36.7988
36.3292
35.7783
35.149
34.4425
33.6568
32.7864
31.8237
30.7609
29.5933
28.3232
26.9627
25.5325
24.0579
22.5648
21.0786
19.6237
18.2227
16.8947
15.6516
14.4972
13.4279
12.4356
11.5094
10.6377
9.80966
9.01542
8.24678
7.49709
6.76114
6.03496
5.31561
4.60094
3.88944
3.18003
2.47198
1.76483
1.05825
0.351943
37.0167
36.6862
36.2541
35.7272
35.1122
34.413
33.6295
32.7581
31.7931
30.7287
29.5622
28.2971
26.9447
25.524
24.0587
22.5741
21.0956
19.6476
18.2519
16.9263
15.6823
14.5244
13.4501
12.4524
11.5212
10.6455
9.81423
9.01771
8.24755
7.49692
6.76044
6.03403
5.31463
4.60001
3.88861
3.17933
2.47142
1.76441
1.058
0.351905
36.9078
36.6263
36.2267
35.7201
35.1174
34.4253
33.6458
32.7763
31.8116
30.7465
29.5787
28.312
26.9578
25.5346
24.0659
22.5772
21.0946
19.6428
18.2438
16.9153
15.669
14.5093
13.4341
12.4364
11.5061
10.6317
9.80213
9.00746
8.23909
7.49011
6.75507
6.02987
5.31146
4.59763
3.88684
3.17802
2.47047
1.76374
1.05759
0.351861
36.873
36.6385
36.2637
35.7699
35.1745
34.4881
33.7138
32.849
31.8875
30.8227
29.6513
28.3763
27.0094
25.5701
24.0833
22.5759
21.0751
19.6069
18.1945
16.8566
15.6056
14.4456
13.3739
12.3822
11.4592
10.5926
9.77053
8.98254
8.21989
7.4756
6.7443
6.02201
5.3058
4.59361
3.88401
3.17604
2.46907
1.76273
1.05687
0.351604
37.0388
36.7632
36.3601
35.8483
35.2436
34.5545
33.7823
32.9223
31.9657
30.9032
29.7286
28.4439
27.0612
25.6022
24.094
22.5654
21.0445
19.5586
18.1322
16.7857
15.5321
14.3753
13.3109
12.3287
11.4159
10.5589
9.74517
8.96405
8.20677
7.46654
6.73821
6.01802
5.30326
4.59205
3.88309
3.17552
2.46877
1.76253
1.0567
0.351448
37.0754
36.7431
36.3102
35.7825
35.1677
34.4702
33.6899
32.8223
31.8602
30.7961
29.6261
28.3529
26.9882
25.5522
24.0697
22.5676
21.0726
19.6098
18.2024
16.8691
15.622
14.4651
13.3952
12.4041
11.4805
10.6123
9.78812
8.99768
8.23254
7.48591
6.75252
6.02843
5.31073
4.59735
3.88681
3.17812
2.47061
1.76387
1.05764
0.351824
37.1833
36.7973
36.3277
35.7767
35.1474
34.4408
33.6549
32.7844
31.8215
30.7585
29.5909
28.3209
26.9605
25.5305
24.0562
22.5634
21.0776
19.6231
18.2224
16.8946
15.6516
14.4973
13.4281
12.4358
11.5095
10.6379
9.80981
9.01556
8.2469
7.49719
6.76122
6.03502
5.31566
4.60099
3.88947
3.18005