# vtk DataFile Version 2.0
I need something to put here
ASCII

DATASET STRUCTURED_GRID
DIMENSIONS 41 21 21
POINTS 18081 float
0.000000 0.000000 0.000000
0.100000 0.000000 0.000000
0.200000 0.000000 0.000000
0.300000 0.000000 0.000000
0.400000 0.000000 0.000000
0.500000 0.000000 0.000000
0.600000 0.000000 0.000000
0.700000 0.000000 0.000000
0.800000 0.000000 0.000000
0.900000 0.000000 0.000000
1.000000 0.000000 0.000000
1.100000 0.000000 0.000000
1.200000 0.000000 0.000000
1.300000 0.000000 0.000000
1.400000 0.000000 0.000000
1.500000 0.000000 0.000000
1.600000 0.000000 0.000000
1.700000 0.000000 0.000000
1.800000 0.000000 0.000000
1.900000 0.000000 0.000000
2.000000 0.000000 0.000000
2.100000 0.000000 0.000000
2.200000 0.000000 0.000000
2.300000 0.000000 0.000000
2.400000 0.000000 0.000000
2.500000 0.000000 0.000000
2.600000 0.000000 0.000000
2.700000 0.000000 0.000000
2.800000 0.000000 0.000000
2.900000 0.000000 0.000000
3.000000 0.000000 0.000000
3.100000 0.000000 0.000000
3.200000 0.000000 0.000000
3.300000 0.000000 0.000000
3.400000 0.000000 0.000000
3.500000 0.000000 0.000000
3.600000 0.000000 0.000000
3.700000 0.000000 0.000000
3.800000 0.000000 0.000000
3.900000 0.000000 0.000000
4.000000 0.000000 0.000000
0.000000 0.100000 0.000000
0.100000 0.100000 0.000000
0.200000 0.100000 0.000000
0.300000 0.100000 0.000000
0.400000 0.100000 0.000000
0.500000 0.100000 0.000000
0.600000 0.100000 0.000000
0.700000 0.100000 0.000000
0.800000 0.100000 0.000000
0.900000 0.100000 0.000000
1.000000 0.100000 0.000000
1.100000 0.100000 0.000000
1.200000 0.100000 0.000000
1.300000 0.100000 0.000000
1.400000 0.100000 0.000000
1.500000 0.100000 0.000000
1.600000 0.100000 0.000000
1.700000 0.100000 0.000000
1.800000 0.100000 0.000000
1.900000 0.100000 0.000000
2.000000 0.100000 0.000000
2.100000 0.100000 0.000000
2.200000 0.100000 0.000000
2.300000 0.100000 0.000000
2.400000 0.100000 0.000000
2.500000 0.100000 0.000000
2.600000 0.100000 0.000000
2.700000 0.100000 0.000000
2.800000 0.100000 0.000000
2.900000 0.100000 0.000000
3.000000 0.100000 0.000000
3.100000 0.100000 0.000000
3.200000 0.100000 0.000000
3.300000 0.100000 0.000000
3.400000 0.100000 0.000000
3.500000 0.100000 0.000000
3.600000 0.100000 0.000000
3.700000 0.100000 0.000000
3.800000 0.100000 0.000000
3.900000 0.100000 0.000000
4.000000 0.100000 0.000000
0.000000 0.200000 0.000000
0.100000 0.200000 0.000000
0.200000 0.200000 0.000000
0.300000 0.200000 0.000000
0.400000 0.200000 0.000000
0.500000 0.200000 0.000000
0.600000 0.200000 0.000000
0.700000 0.200000 0.000000
0.800000 0.200000 0.000000
0.900000 0.200000 0.000000
1.000000 0.200000 0.000000
1.100000 0.200000 0.000000
1.200000 0.200000 0.000000
1.300000 0.200000 0.000000
1.400000 0.200000 0.000000
1.500000 0.200000 0.000000
1.600000 0.200000 0.000000
1.700000 0.200000 0.000000
1.800000 0.200000 0.000000
1.900000 0.200000 0.000000
2.000000 0.200000 0.000000
2.100000 0.200000 0.000000
2.200000 0.200000 0.000000
2.300000 0.200000 0.000000
2.400000 0.200000 0.000000
2.500000 0.200000 0.000000
2.600000 0.200000 0.000000
2.700000 0.200000 0.000000
2.800000 0.200000 0.000000
2.900000 0.200000 0.000000
3.000000 0.200000 0.000000
3.100000 0.200000 0.000000
3.200000 0.200000 0.000000
3.300000 0.200000 0.000000
3.400000 0.200000 0.000000
3.500000 0.200000 0.000000
3.600000 0.200000 0.000000
3.700000 0.200000 0.000000
3.800000 0.200000 0.000000
3.900000 0.200000 0.000000
4.000000 0.200000 0.000000
0.000000 0.300000 0.000000
0.100000 0.300000 0.000000
0.200000 0.300000 0.000000
0.300000 0.300000 0.000000
0.400000 0.300000 0.000000
0.500000 0.300000 0.000000
0.600000 0.300000 0.000000
0.700000 0.300000 0.000000
0.800000 0.300000 0.000000
0.900000 0.300000 0.000000
1.000000 0.300000 0.000000
1.100000 0.300000 0.000000
1.200000 0.300000 0.000000
1.300000 0.300000 0.000000
1.400000 0.300000 0.000000
1.500000 0.300000 0.000000
1.600000 0.300000 0.000000
1.700000 0.300000 0.000000
1.800000 0.300000 0.000000
1.900000 0.300000 0.000000
2.000000 0.300000 0.000000
2.100000 0.300000 0.000000
2.200000 0.300000 0.000000
2.300000 0.300000 0.000000
2.400000 0.300000 0.000000
2.500000 0.300000 0.000000
2.600000 0.300000 0.000000
2.700000 0.300000 0.000000
2.800000 0.300000 0.000000
2.900000 0.300000 0.000000
3.000000 0.300000 0.000000
3.100000 0.300000 0.000000
3.200000 0.300000 0.000000
3.300000 0.300000 0.000000
3.400000 0.300000 0.000000
3.500000 0.300000 0.000000
3.600000 0.300000 0.000000
3.700000 0.300000 0.000000
3.800000 0.300000 0.000000
3.900000 0.300000 0.000000
4.000000 0.300000 0.000000
0.000000 0.400000 0.000000
0.100000 0.400000 0.000000
0.200000 0.400000 0.000000
0.300000 0.400000 0.000000
0.400000 0.400000 0.000000
0.500000 0.400000 0.000000
0.600000 0.400000 0.000000
0.700000 0.400000 0.000000
0.800000 0.400000 0.000000
0.900000 0.400000 0.000000
1.000000 0.400000 0.000000
1.100000 0.400000 0.000000
1.200000 0.400000 0.000000
1.300000 0.400000 0.000000
1.400000 0.400000 0.000000
1.500000 0.400000 0.000000
1.600000 0.400000 0.000000
1.700000 0.400000 0.000000
1.800000 0.400000 0.000000
1.900000 0.400000 0.000000
2.000000 0.400000 0.000000
2.100000 0.400000 0.000000
2.200000 0.400000 0.000000
2.300000 0.400000 0.000000
2.400000 0.400000 0.000000
2.500000 0.400000 0.000000
2.600000 0.400000 0.000000
2.700000 0.400000 0.000000
2.800000 0.400000 0.000000
2.900000 0.400000 0.000000
3.000000 0.400000 0.000000
3.100000 0.400000 0.000000
3.200000 0.400000 0.000000
3.300000 0.400000 0.000000
3.400000 0.400000 0.000000
3.500000 0.400000 0.000000
3.600000 0.400000 0.000000
3.700000 0.400000 0.000000
3.800000 0.400000 0.000000
3.900000 0.400000 0.000000
4.000000 0.400000 0.000000
0.000000 0.500000 0.000000
0.100000 0.500000 0.000000
0.200000 0.500000 0.000000
0.300000 0.500000 0.000000
0.400000 0.500000 0.000000
0.500000 0.500000 0.000000
0.600000 0.500000 0.000000
0.700000 0.500000 0.000000
0.800000 0.500000 0.000000
0.900000 0.500000 0.000000
1.000000 0.500000 0.000000
1.100000 0.500000 0.000000
1.200000 0.500000 0.000000
1.300000 0.500000 0.000000
1.400000 0.500000 0.000000
1.500000 0.500000 0.000000
1.600000 0.500000 0.000000
1.700000 0.500000 0.000000
1.800000 0.500000 0.000000
1.900000 0.500000 0.000000
2.000000 0.500000 0.000000
2.100000 0.500000 0.000000
2.200000 0.500000 0.000000
2.300000 0.500000 0.000000
2.400000 0.500000 0.000000
2.500000 0.500000 0.000000
2.600000 0.500000 0.000000
2.700000 0.500000 0.000000
2.800000 0.500000 0.000000
2.900000 0.500000 0.000000
3.000000 0.500000 0.000000
3.100000 0.500000 0.000000
3.200000 0.500000 0.000000
3.300000 0.500000 0.000000
3.400000 0.500000 0.000000
3.500000 0.500000 0.000000
3.600000 0.500000 0.000000
3.700000 0.500000 0.000000
3.800000 0.500000 0.000000
3.900000 0.500000 0.000000
4.000000 0.500000 0.000000
0.000000 0.600000 0.000000
0.100000 0.600000 0.000000
0.200000 0.600000 0.000000
0.300000 0.600000 0.000000
0.400000 0.600000 0.000000
0.500000 0.600000 0.000000
0.600000 0.600000 0.000000
0.700000 0.600000 0.000000
0.800000 0.600000 0.000000
0.900000 0.600000 0.000000
1.000000 0.600000 0.000000
1.100000 0.600000 0.000000
1.200000 0.600000 0.000000
1.300000 0.600000 0.000000
1.400000 0.600000 0.000000
1.500000 0.600000 0.000000
1.600000 0.600000 0.000000
1.700000 0.600000 0.000000
1.800000 0.600000 0.000000
1.900000 0.600000 0.000000
2.000000 0.600000 0.000000
2.100000 0.600000 0.000000
2.200000 0.600000 0.000000
2.300000 0.600000 0.000000
2.400000 0.600000 0.000000
2.500000 0.600000 0.000000
2.600000 0.600000 0.000000
2.700000 0.600000 0.000000
2.800000 0.600000 0.000000
2.900000 0.600000 0.000000
3.000000 0.600000 0.000000
3.100000 0.600000 0.000000
3.200000 0.600000 0.000000
3.300000 0.600000 0.000000
3.400000 0.600000 0.000000
3.500000 0.600000 0.000000
3.600000 0.600000 0.000000
3.700000 0.600000 0.000000
3.800000 0.600000 0.000000
3.900000 0.600000 0.000000
4.000000 0.600000 0.000000
0.000000 0.700000 0.000000
0.100000 0.700000 0.000000
0.200000 0.700000 0.000000
0.300000 0.700000 0.000000
0.400000 0.700000 0.000000
0.500000 0.700000 0.000000
0.600000 0.700000 0.000000
0.700000 0.700000 0.000000
0.800000 0.700000 0.000000
0.900000 0.700000 0.000000
1.000000 0.700000 0.000000
1.100000 0.700000 0.000000
1.200000 0.700000 0.000000
1.300000 0.700000 0.000000
1.400000 0.700000 0.000000
1.500000 0.700000 0.000000
1.600000 0.700000 0.000000
1.700000 0.700000 0.000000
1.800000 0.700000 0.000000
1.900000 0.700000 0.000000
2.000000 0.700000 0.000000
2.100000 0.700000 0.000000
2.200000 0.700000 0.000000
2.300000 0.700000 0.000000
2.400000 0.700000 0.000000
2.500000 0.700000 0.000000
2.600000 0.700000 0.000000
2.700000 0.700000 0.000000
2.800000 0.700000 0.000000
2.900000 0.700000 0.000000
3.000000 0.700000 0.000000
3.100000 0.700000 0.000000
3.200000 0.700000 0.000000
3.300000 0.700000 0.000000
3.400000 0.700000 0.000000
3.500000 0.700000 0.000000
3.600000 0.700000 0.000000
3.700000 0.700000 0.000000
3.800000 0.700000 0.000000
3.900000 0.700000 0.000000
4.000000 0.700000 0.000000
0.000000 0.800000 0.000000
0.100000 0.800000 0.000000
0.200000 0.800000 0.000000
0.300000 0.800000 0.000000
0.400000 0.800000 0.000000
0.500000 0.800000 0.000000
0.600000 0.800000 0.000000
0.700000 0.800000 0.000000
0.800000 0.800000 0.000000
0.900000 0.800000 0.000000
1.000000 0.800000 0.000000
1.100000 0.800000 0.000000
1.200000 0.800000 0.000000
1.300000 0.800000 0.000000
1.400000 0.800000 0.000000
1.500000 0.800000 0.000000
1.600000 0.800000 0.000000
1.700000 0.800000 0.000000
1.800000 0.800000 0.000000
1.900000 0.800000 0.000000
2.000000 0.800000 0.000000
2.100000 0.800000 0.000000
2.200000 0.800000 0.000000
2.300000 0.800000 0.000000
2.400000 0.800000 0.000000
2.500000 0.800000 0.000000
2.600000 0.800000 0.000000
2.700000 0.800000 0.000000
2.800000 0.800000 0.000000
2.900000 0.800000 0.000000
3.000000 0.800000 0.000000
3.100000 0.800000 0.000000
3.200000 0.800000 0.000000
3.300000 0.800000 0.000000
3.400000 0.800000 0.000000
3.500000 0.800000 0.000000
3.600000 0.800000 0.000000
[...]
CELL_DATA 16000
SCALARS pressure float 1
LOOKUP_TABLE default
26.0515
25.8686
25.5306
25.0799
24.5501
23.9657
23.3441
22.6973
22.034
21.3601
20.6796
19.995
19.3079
18.619
17.9286
17.2368
16.5434
15.8485
15.1519
14.4538
13.7541
13.0531
12.3509
11.6476
10.9436
10.2389
9.5337
8.82815
8.12234
7.41634
6.71021
6.004
5.29772
4.5914
3.88506
3.17871
2.47234
1.76597
1.05959
0.353202
26.1102
25.9
25.5473
25.0888
24.5547
23.968
23.3451
22.6977
22.034
21.3599
20.6793
19.9948
19.3077
18.6189
17.9285
17.2368
16.5434
15.8485
15.1519
14.4538
13.7541
13.0531
12.3509
11.6476
10.9436
10.2389
9.53369
8.82814
8.12233
7.41633
6.7102
6.00399
5.29771
4.5914
3.88506
3.1787
2.47234
1.76597
1.05959
0.353203
26.2302
25.9805
25.6009
25.1242
24.5781
23.9833
23.3549
22.7038
22.0377
21.362
20.6805
19.9954
19.3081
18.6193
17.929
17.2373
16.5441
15.8492
15.1526
14.4544
13.7547
13.0536
12.3513
11.6479
10.9438
10.2391
9.53382
8.82823
8.12239
7.41637
6.71023
6.004
5.29772
4.5914
3.88506
3.17871
2.47234
1.76597
1.05959
0.353205
26.386
26.0917
25.6787
25.1779
24.6147
24.0079
23.3712
22.7143
22.0442
21.3658
20.6826
19.9967
19.3091
18.6202
17.93
17.2385
16.5453
15.8504
15.1539
14.4556
13.7558
13.0545
12.352
11.6486
10.9443
10.2394
9.53407
8.82841
8.12251
7.41645
6.71028
6.00404
5.29774
4.59142
3.88507
3.17871
2.47234
1.76597
1.05959
0.353208
26.5551
26.2173
25.7693
25.242
24.6593
24.0384
23.3915
22.7274
22.0523
21.3706
20.6853
19.9983
19.3103
18.6215
17.9315
17.2401
16.5471
15.8523
15.1556
14.4573
13.7573
13.0558
12.3531
11.6494
10.9449
10.2399
9.53442
8.82866
8.12269
7.41657
6.71036
6.00409
5.29778
4.59144
3.88508
3.17872
2.47235
1.76597
1.0596
0.35321
26.7198
26.3431
25.8621
25.3088
24.7064
24.0709
23.4134
22.7416
22.061
21.3757
20.6882
20
19.3117
18.623
17.9333
17.2421
16.5492
15.8544
15.1578
14.4593
13.7591
13.0574
12.3544
11.6504
10.9457
10.2405
9.53484
8.82895
8.12289
7.41671
6.71046
6.00415
5.29781
4.59146
3.8851
3.17873
2.47235
1.76598
1.0596
0.353211
26.8664
26.4574
25.9478
25.3714
24.7511
24.102
23.4343
22.7551
22.0693
21.3804
20.6908
20.0016
19.3131
18.6245
17.9351
17.2443
16.5515
15.8568
15.1601
14.4614
13.761
13.059
12.3557
11.6515
10.9465
10.2411
9.53527
8.82926
8.12311
7.41686
6.71055
6.00421
5.29786
4.59149
3.88511
3.17873
2.47236
1.76598
1.0596
0.353212
26.9846
26.5509
26.0188
25.4238
24.7887
24.1283
23.4522
22.7667
22.0764
21.3844
20.6929
20.0029
19.3142
18.6259
17.9369
17.2462
16.5536
15.8589
15.1622
14.4634
13.7627
13.0605
12.3569
11.6524
10.9473
10.2416
9.53567
8.82955
8.1233
7.41699
6.71064
6.00427
5.29789
4.59151
3.88513
3.17874
2.47236
1.76598
1.0596
0.353213
27.0672
26.6168
26.0694
25.4613
24.8158
24.1474
23.4651
22.7751
22.0815
21.3873
20.6945
20.0039
19.3152
18.6271
17.9383
17.2478
16.5553
15.8606
15.1638
14.4649
13.7641
13.0616
12.3579
11.6532
10.9478
10.242
9.53599
8.82977
8.12346
7.4171
6.71072
6.00432
5.29792
4.59153
3.88514
3.17875
2.47237
1.76598
1.0596
0.353213
27.1096
26.6509
26.0956
25.4809
24.8301
24.1574
23.472
22.7795
22.0842
21.3888
20.6953
20.0044
19.3157
18.6277
17.9391
17.2487
16.5563
15.8616
15.1647
14.4657
13.7648
13.0623
12.3584
11.6536
10.9482
10.2423
9.53617
8.8299
8.12355
7.41716
6.71076
6.00435
5.29794
4.59154
3.88515
3.17876
2.47237
1.76599
1.0596
0.353213
27.1097
26.6509
26.0957
25.4809
24.8301
24.1575
23.472
22.7796
22.0843
21.3889
20.6954
20.0046
19.3159
18.6279
17.9392
17.2489
16.5564
15.8617
15.1649
14.4659
13.7649
13.0624
12.3585
11.6537
10.9482
10.2423
9.5362
8.82993
8.12357
7.41718
6.71077
6.00436
5.29795
4.59155
3.88515
3.17876
2.47237
1.76599
1.0596
0.353213
27.0674
26.617
26.0695
25.4615
24.816
24.1476
23.4654
22.7754
22.0818
21.3876
20.6948
20.0043
19.3156
18.6275
17.9388
17.2483
16.5558
15.8611
15.1642
14.4652
13.7644
13.0619
12.3581
11.6534
10.948
10.2422
9.53609
8.82985
8.12352
7.41715
6.71075
6.00435
5.29794
4.59154
3.88515
3.17876
2.47237
1.76599
1.0596
0.353213
26.9849
26.5511
26.0191
25.4241
24.789
24.1287
23.4526
22.7671
22.0769
21.385
20.6935
20.0036
19.315
18.6267
17.9377
17.2471
16.5544
15.8597
15.1628
14.464
13.7632
13.0609
12.3573
11.6527
10.9475
10.2418
9.53584
8.82968
8.12341
7.41707
6.7107
6.00432
5.29792
4.59153
3.88514
3.17875
2.47237
1.76598
1.0596
0.353213
26.8668
26.4578
25.9482
25.3718
24.7515
24.1024
23.4348
22.7557
22.07
21.3812
20.6916
20.0025
19.3141
18.6256
17.9362
17.2453
16.5525
15.8578
15.161
14.4622
13.7617
13.0596
12.3562
11.6519
10.9469
10.2413
9.5355
8.82944
8.12324
7.41696
6.71063
6.00427
5.2979
4.59151
3.88513
3.17875
2.47236
1.76598
1.0596
0.353213
26.7203
26.3436
25.8626
25.3093
24.7069
24.0715
23.414
22.7422
22.0618
21.3765
20.6891
20.0011
19.3129
18.6242
17.9346
17.2434
16.5505
15.8556
15.1589
14.4603
13.7599
13.0581
12.355
11.6509
10.9461
10.2408
9.53511
8.82916
8.12305
7.41684
6.71055
6.00422
5.29786
4.59149
3.88512
3.17874
2.47236
1.76598
1.0596
0.353212
26.5556
26.2178
25.7698
25.2425
24.6599
24.039
23.3922
22.7282
22.0531
21.3716
20.6864
19.9995
19.3116
18.6229
17.9329
17.2415
16.5485
15.8536
15.1568
14.4584
13.7582
13.0566
12.3538
11.65
10.9454
10.2403
9.53472
8.82889
8.12287
7.41671
6.71046
6.00416
5.29783
4.59147
3.8851
3.17873
2.47235
1.76597
1.05959
0.35321
26.3865
26.0922
25.6792
25.1785
24.6153
24.0086
23.3719
22.7151
22.0451
21.3669
20.6838
19.998
19.3105
18.6217
17.9316
17.24
16.5468
15.8518
15.1551
14.4568
13.7568
13.0554
12.3528
11.6492
10.9448
10.2398
9.53438
8.82865
8.1227
7.4166
6.71039
6.00411
5.29779
4.59145
3.88509
3.17872
2.47235
1.76597
1.05959
0.353207
26.2308
25.981
25.6015
25.1248
24.5787
23.984
23.3557
22.7047
22.0387
21.3631
20.6817
19.9967
19.3096
18.6208
17.9306
17.2389
16.5456
15.8506
15.1539
14.4556
13.7557
13.0545
12.352
11.6486
10.9443
10.2395
9.53414
8.82848
8.12258
7.41651
6.71033
6.00408
5.29777
4.59143
3.88508
3.17871
2.47234
1.76596
1.05959
0.353204
26.1107
25.9005
25.5479
25.0893
24.5553
23.9687
23.3458
22.6985
22.0349
21.361
20.6805
19.9961
19.3091
18.6203
17.9301
17.2383
16.5449
15.8499
15.1532
14.455
13.7552
13.054
12.3516
11.6482
10.9441
10.2393
9.534
8.82838
8.12251
7.41647
6.7103
6.00406
5.29776
4.59142
3.88507
3.17871
2.47234
1.76596
1.05958
0.3532
26.052
25.8692
25.5312
25.0805
24.5507
23.9664
23.3448
22.6981
22.0349
21.3611
20.6807
19.9963
19.3093
18.6205
17.9301
17.2383
16.5449
15.8499
15.1532
14.4549
13.7551
13.054
12.3516
11.6482
10.9441
10.2393
9.534
8.82839
8.12252
7.41647
6.7103
6.00406
5.29776
4.59143
3.88507
3.17871
2.47234
1.76596
1.05958
0.353198
26.1102
25.9
25.5473
25.0887
24.5547
23.968
23.3451
22.6977
22.034
21.3599
20.6793
19.9948
19.3077
18.6189
17.9285
17.2368
16.5434
15.8485
15.1519
14.4538
13.7541
13.0531
12.3509
11.6476
10.9436
10.2389
9.53369
8.82814
8.12233
7.41633
6.7102
6.00399
5.29771
4.5914
3.88506
3.1787
2.47234
1.76597
1.05959
0.353203
26.1611
25.9111
25.5415
25.0774
24.5428
23.9575
23.3366
22.6911
22.0291
21.3564
20.6768
19.9929
19.3063
18.6178
17.9276
17.2359
16.5426
15.8477
15.1512
14.4531
13.7535
13.0526
12.3504
11.6472
10.9432
10.2386
9.53348
8.82798
8.12221
7.41624
6.71014
6.00394
5.29768
4.59137
3.88504
3.17869
2.47233
1.76596
1.05958
0.353201
26.2813
25.9822
25.5828
25.1009
24.5559
23.9646
23.3401
22.6926
22.0296
21.3562
20.6764
19.9925
19.3059
18.6175
17.9274
17.2358
16.5426
15.8478
15.1513
14.4532
13.7536
13.0526
12.3504
11.6472
10.9432
10.2386
9.53346
8.82796
8.12219
7.41622
6.71012
6.00392
5.29766
4.59136
3.88503
3.17868
2.47232
1.76596
1.05958
0.353202
26.443
26.0899
25.6542
25.1478
24.5865
23.9842
23.3524
22.7001
22.0339
21.3586
20.6775
19.993
19.3063
18.6178
17.9279
17.2364
16.5433
15.8485
15.152
14.4539
13.7542
13.0531
12.3509
11.6476
10.9435
10.2388
9.53359
8.82804
8.12224
7.41625
6.71014
6.00393
5.29767
4.59136
3.88503
3.17868
2.47232
1.76595
1.05958
0.353203
26.6205
26.215
25.7415
25.2081
24.6274
24.0116
23.3704
22.7115
22.0408
21.3625
20.6797
19.9943
19.3072
18.6187
17.9289
17.2376
16.5446
15.8498
15.1533
14.4551
13.7553
13.0541
12.3516
11.6482
10.944
10.2391
9.53384
8.82822
8.12236
7.41633
6.71019
6.00396
5.29769
4.59137
3.88504
3.17868
2.47232
1.76595
1.05958
0.353203
26.7937
26.3416
25.8327
25.2727
24.6725
24.0423
23.3909
22.7247
22.049
21.3673
20.6824
19.9958
19.3084
18.6199
17.9303
17.2391
16.5462
15.8515
15.155
14.4567
13.7567
13.0553
12.3526
11.649
10.9446
10.2396
9.53417
8.82845
8.12252
7.41644
6.71026
6.00401
5.29771
4.59139
3.88504
3.17869
2.47232
1.76595
1.05958
0.353202
26.9477
26.4569
25.9176
25.334
24.7158
24.0723
23.4111
22.7379
22.0571
21.372
20.6851
19.9975
19.3097
18.6213
17.9318
17.2408
16.5481
15.8534
15.1568
14.4584
13.7583
13.0566
12.3537
11.6498
10.9452
10.2401
9.53452
8.8287
8.12269
7.41656
6.71034
6.00406
5.29775
4.59141
3.88506
3.17869
2.47233
1.76595
1.05958
0.353202
27.0718
26.5513
25.9881
25.3856
24.7527
24.0981
23.4286
22.7493
22.0642
21.3762
20.6874
19.9989
19.3108
18.6226
17.9333
17.2425
16.5498
15.8551
15.1585
14.46
13.7597
13.0578
12.3547
11.6506
10.9458
10.2405
9.53486
8.82894
8.12286
7.41667
6.71041
6.00411
5.29778
4.59143
3.88507
3.1787
2.47233
1.76595
1.05958
0.353201
27.1583
26.618
26.0384
25.4227
24.7794
24.1169
23.4414
22.7576
22.0694
21.3792
20.6891
20
19.3118
18.6236
17.9345
17.2438
16.5512
15.8565
15.1598
14.4612
13.7608
13.0588
12.3555
11.6513
10.9463
10.2409
9.53512
8.82913
8.12299
7.41676
6.71047
6.00415
5.2978
4.59144
3.88508
3.17871
2.47233
1.76596
1.05958
0.3532
27.2028
26.6524
26.0646
25.442
24.7935
24.1268
23.4481
22.7621
22.0721
21.3809
20.6901
20.0006
19.3123
18.6242
17.9352
17.2446
16.552
15.8573
15.1606
14.4619
13.7614
13.0593
12.356
11.6516
10.9466
10.2411
9.53528
8.82924
8.12307
7.41682
6.71051
6.00418
5.29782
4.59145
3.88508
3.17871
2.47233
1.76596
1.05958
0.353199
27.2028
26.6525
26.0646
25.4421
24.7935
24.1269
23.4482
22.7622
22.0722
21.381
20.6902
20.0008
19.3125
18.6244
17.9354
17.2447
16.5521
15.8574
15.1607
14.4621
13.7615
13.0594
12.356
11.6517
10.9467
10.2411
9.53531
8.82927
8.12309
7.41684
6.71053
6.00418
5.29783
4.59146
3.88509
3.17871
2.47233
1.76596
1.05958
0.353199
27.1585
26.6182
26.0386
25.4228
24.7796
24.1171
23.4416
22.7579
22.0696
21.3795
20.6895
20.0004
19.3122
18.624
17.9349
17.2443
16.5516
15.8569
15.1602
14.4616
13.7611
13.059
12.3557
11.6514
10.9465
10.241
9.53522
8.82921
8.12305
7.41681
6.71051
6.00418
5.29782
4.59146
3.88509
3.17871
2.47233
1.76596
1.05958
0.353199
27.0721
26.5516
25.9884
25.3859
24.753
24.0984
23.4289
22.7497
22.0646
21.3767
20.688
19.9995
19.3115
18.6233
17.9341
17.2432
16.5505
15.8558
15.1591
14.4605
13.7602
13.0582
12.3551
11.6509
10.9461
10.2407
9.53502
8.82907
8.12296
7.41675
6.71047
6.00415
5.29781
4.59145
3.88508
3.17871
2.47233
1.76596
1.05958
0.3532
26.9481
26.4572
25.9179
25.3344
24.7162
24.0728
23.4116
22.7384
22.0577
21.3727
20.6858
19.9983
19.3106
18.6223
17.9328
17.2418
16.549
15.8543
15.1576
14.4591
13.7589
13.0572
12.3542
11.6502
10.9456
10.2403
9.53474
8.82887
8.12283
7.41666
6.71041
6.00412
5.29779
4.59144
3.88507
3.1787
2.47233
1.76595
1.05958
0.3532
26.7942
26.342
25.8331
25.2732
24.6729
24.0429
23.3915
22.7254
22.0497
21.3681
20.6833
19.9969
19.3095
18.6211
17.9315
17.2403
16.5474
15.8526
15.156
14.4576
13.7575
13.056
12.3532
11.6495
10.945
10.2399
9.53443
8.82865
8.12268
7.41656
6.71035
6.00407
5.29776
4.59142
3.88506
3.1787
2.47233
1.76595
1.05958
0.3532
26.621
26.2155
25.742
25.2086
24.628
24.0122
23.371
22.7123
22.0416
21.3635
20.6808
19.9954
19.3084
18.62
17.9302
17.2389
16.5458
15.851
15.1544
14.4561
13.7562
13.0549
12.3523
11.6487
10.9444
10.2395
9.53413
8.82845
8.12254
7.41647
6.71029
6.00404
5.29774
4.59141
3.88506
3.17869
2.47233
1.76595
1.05957
0.3532
26.4436
26.0905
25.6547
25.1484
24.587
23.9848
23.3531
22.7009
22.0348
21.3596
20.6787
19.9942
19.3076
18.6192
17.9293
17.2378
16.5447
15.8498
15.1532
14.455
13.7552
13.054
12.3516
11.6482
10.944
10.2392
9.5339
8.82829
8.12243
7.4164
6.71024
6.00401
5.29772
4.5914
3.88505
3.17869
2.47232
1.76595
1.05957
0.3532
26.2819
25.9827
25.5833
25.1015
24.5565
23.9652
23.3408
22.6934
22.0305
21.3573
20.6775
19.9937
19.3073
18.6189
17.9289
17.2373
16.544
15.8491
15.1525
14.4543
13.7546
13.0535
12.3511
11.6478
10.9437
10.239
9.53378
8.8282
8.12237
7.41636
6.71022
6.004
5.29771
4.59139
3.88505
3.17869
2.47232
1.76595
1.05957
0.353199
26.1616
25.9116
25.5421
25.0779
24.5434
23.9582
23.3373
22.6919
22.03
21.3574
20.678
19.9942
19.3077
18.6192
17.9291
17.2374
16.544
15.8491
15.1525
14.4542
13.7545
13.0534
12.3511
11.6478
10.9437
10.239
9.53379
8.82822
8.12239
7.41638
6.71024
6.00401
5.29772
4.5914
3.88505
3.17869
2.47233
1.76595
1.05958
0.353198
26.1107
25.9005
25.5478
25.0893
24.5553
23.9686
23.3458
22.6984
22.0349
21.3609
20.6804
19.996
19.309
18.6203
17.93
17.2382
16.5448
15.8498
15.1532
14.4549
13.7551
13.0539
12.3516
11.6482
10.944
10.2392
9.53398
8.82836
8.1225
7.41645
6.71029
6.00405
5.29775
4.59142
3.88507
3.1787
2.47233
1.76596
1.05958
0.353197
26.2302
25.9805
25.6009
25.1242
24.5781
23.9833
23.3549
22.7038
22.0377
21.362
20.6805
19.9954
19.3081
18.6193
17.929
17.2373
16.5441
15.8492
15.1526
14.4544
13.7547
13.0536
12.3513
11.6479
10.9438
10.2391
9.53382
8.82823
8.12239
7.41637
6.71023
6.004
5.29772
4.5914
3.88506
3.17871
2.47234
1.76597
1.05959
0.353205
26.2813
25.9822
25.5828
25.1009
24.5559
23.9646
23.3401
22.6926
22.0296
21.3562
20.6764
19.9925
19.3059
18.6175
17.9274
17.2358
16.5426
15.8478
15.1513
14.4532
13.7536
13.0526
12.3504
11.6472
10.9432
10.2386
9.53346
8.82796
8.12219
7.41622
6.71012
6.00392
5.29766
4.59136
3.88503
3.17868
2.47232
1.76596
1.05958
0.353202
26.4022
26.0485
25.6164
25.1163
24.5617
23.9655
23.3388
22.6905
22.0273
21.3542
20.6746
19.991
19.3048
18.6166
17.9267
17.2352
16.5421
15.8473
15.1509
14.4528
13.7532
13.0523
12.3501
11.647
10.943
10.2384
9.53331
8.82783
8.12209
7.41614
6.71006
6.00388
5.29763
4.59134
3.88501
3.17867
2.47232
1.76595
1.05958
0.353202
26.5677
26.1549
25.6838
25.1583
24.5874
23.9809
23.3477
22.6953
22.0296
21.355
20.6747
19.9908
19.3045
18.6164
17.9268
17.2354
16.5424
15.8477
15.1512
14.4532
13.7536
13.0526
12.3503
11.6471
10.9431
10.2385
9.53333
8.82784
8.12208
7.41613
6.71004
6.00386
5.29762
4.59133
3.885
3.17866
2.47231
1.76594
1.05957
0.353202
26.7512
26.281
25.7694
25.2158
24.6254
24.0055
23.3633
22.7048
22.0351
21.3578
20.676
19.9914
19.3049
18.617
17.9275
17.2363
16.5434
15.8487
15.1523
14.4542
13.7544
13.0533
12.3509
11.6476
10.9434
10.2387
9.53349
8.82794
8.12215
7.41617
6.71007
6.00387
5.29762
4.59133
3.885
3.17866
2.47231
1.76594
1.05957
0.353202
26.9312
26.4097
25.8603
25.2789
24.6686
24.0345
23.3823
22.7167
22.0421
21.3617
20.6779
19.9924
19.3058
18.618
17.9287
17.2377
16.5449
15.8502
15.1538
14.4556
13.7557
13.0543
12.3518
11.6482
10.9439
10.2391
9.53374
8.82812
8.12226
7.41624
6.71011
6.0039
5.29763
4.59133
3.885
3.17866
2.4723
1.76594
1.05957
0.353201
27.0917
26.5275
25.9454
25.3395
24.7109
24.0634
23.4014
22.7289
22.0494
21.3657
20.68
19.9936
19.3069
18.6193
17.9302
17.2393
16.5466
15.852
15.1555
14.4572
13.7571
13.0555
12.3527
11.649
10.9445
10.2395
9.53404
8.82832
8.1224
7.41634
6.71017
6.00394
5.29766
4.59134
3.88501
3.17866
2.47231
1.76594
1.05957
0.353199
27.221
26.6241
26.0165
25.3908
24.7472
24.0885
23.4182
22.7397
22.0559
21.3693
20.6819
19.9947
19.308
18.6205
17.9317
17.241
16.5483
15.8536
15.1571
14.4587
13.7584
13.0567
12.3536
11.6497
10.945
10.2399
9.53432
8.82852
8.12254
7.41643
6.71023
6.00398
5.29768
4.59136
3.88502
3.17867
2.47231
1.76594
1.05957
0.353197
27.3113
26.6924
26.0672
25.4278
24.7736
24.1069
23.4306
22.7477
22.0608
21.372
20.6833
19.9956
19.3088
18.6216
17.9329
17.2423
16.5496
15.8549
15.1584
14.4599
13.7595
13.0575
12.3544
11.6503
10.9455
10.2402
9.53455
8.82868
8.12265
7.4165
6.71028
6.00401
5.2977
4.59137
3.88503
3.17867
2.47231
1.76594
1.05957
0.353196
27.3576
26.7276
26.0936
25.4472
24.7875
24.1166
23.4372
22.752
22.0634
21.3735
20.6841
19.9961
19.3093
18.6222
17.9336
17.2431
16.5504
15.8557
15.1591
14.4605
13.7601
13.058
12.3548
11.6506
10.9457
10.2404
9.53469
8.82878
8.12272
7.41655
6.71032
6.00403
5.29772
4.59138
3.88503
3.17867
2.47231
1.76594
1.05957
0.353195
27.3577
26.7277
26.0937
25.4472
24.7875
24.1166
23.4373
22.7521
22.0635
21.3736
20.6842
19.9962
19.3095
18.6223
17.9337
17.2432
16.5506
15.8558
15.1592
14.4606
13.7602
13.0581
12.3549
11.6506
10.9458
10.2404
9.53472
8.82881
8.12274
7.41657
6.71033
6.00404
5.29772
4.59139
3.88503
3.17868
2.47231
1.76594
1.05957
0.353194
27.3115
26.6925
26.0674
25.428
24.7738
24.1071
23.4308
22.748
22.061
21.3723
20.6836
19.996
19.3092
18.622
17.9333
17.2427
16.55
15.8553
15.1587
14.4602
13.7598
13.0578
12.3546
11.6504
10.9456
10.2403
9.53465
8.82876
8.12271
7.41655
6.71032
6.00404
5.29772
4.59138
3.88503
3.17868
2.47231
1.76594
1.05957
0.353194
27.2213
26.6244
26.0168
25.3911
24.7475
24.0888
23.4186
22.7401
22.0564
21.3698
20.6824
19.9953
19.3086
18.6212
17.9324
17.2417
16.549
15.8543
15.1577
14.4592
13.7589
13.0571
12.354
11.65
10.9453
10.2401
9.53448
8.82865
8.12264
7.4165
6.71029
6.00402
5.29771
4.59138
3.88503
3.17868
2.47231
1.76594
1.05957
0.353195
27.0921
26.5278
25.9458
25.3399
24.7113
24.0638
23.4019
22.7295
22.05
21.3664
20.6808
19.9945
19.3078
18.6202
17.9312
17.2403
16.5475
15.8528
15.1563
14.4579
13.7577
13.0561
12.3532
11.6494
10.9448
10.2397
9.53425
8.82849
8.12253
7.41644
6.71025
6.00399
5.2977
4.59137
3.88503
3.17867
2.47231
1.76594
1.05957
0.353196
26.9317
26.4102
25.8607
25.2794
24.6691
24.035
23.3828
22.7174
22.0428
21.3625
20.6788
19.9934
19.3069
18.6191
17.9299
17.2389
16.546
15.8513
15.1547
14.4564
13.7564
13.055
12.3523
11.6487
10.9443
10.2394
9.534
8.82832
8.12242
7.41636
6.7102
6.00397
5.29768
4.59136
3.88503
3.17867
2.47231
1.76594
1.05957
0.353196
26.7517
26.2816
25.77
25.2163
24.6259
24.0061
23.364
22.7056
22.0359
21.3587
20.677
19.9925
19.3062
18.6183
17.9288
17.2376
16.5446
15.8499
15.1534
14.4551
13.7553
13.054
12.3516
11.6481
10.9439
10.2391
9.53378
8.82817
8.12232
7.4163
6.71017
6.00395
5.29767
4.59136
3.88502
3.17867
2.47231
1.76594
1.05957
0.353197
26.5682
26.1555
25.6843
25.1589
24.588
23.9815
23.3484
22.6961
22.0305
21.356
20.6758
19.992
19.3058
18.6178
17.9282
17.2368
16.5437
15.8489
15.1524
14.4542
13.7545
13.0534
12.351
11.6477
10.9436
10.2388
9.53364
8.82808
8.12227
7.41627
6.71015
6.00394
5.29767
4.59136
3.88502
3.17867
2.47231
1.76594
1.05957
0.353197
26.4028
26.049
25.6169
25.1169
24.5623
23.9661
23.3395
22.6913
22.0282
21.3552
20.6757
19.9923
19.3061
18.618
17.9281
17.2367
16.5435
15.8486
15.1521
14.4539
13.7542
13.0531
12.3509
11.6476
10.9435
10.2388
9.53362
8.82808
8.12227
7.41628
6.71016
6.00395
5.29768
4.59137
3.88503
3.17868
2.47231
1.76595
1.05957
0.353196
26.2819
25.9827
25.5833
25.1015
24.5565
23.9652
23.3408
22.6934
22.0304
21.3572
20.6775
19.9937
19.3073
18.6189
17.9289
17.2373
16.544
15.8491
15.1525
14.4543
13.7546
13.0534
12.3511
11.6478
10.9437
10.239
9.53376
8.82819
8.12236
7.41635
6.71021
6.00399
5.2977
4.59139
3.88504
3.17869
2.47232
1.76595
1.05957
0.353196
26.2308
25.981
25.6014
25.1248
24.5787
23.9839
23.3556
22.7046
22.0386
21.363
20.6816
19.9966
19.3095
18.6207
17.9305
17.2388
16.5455
15.8505
15.1538
14.4555
13.7557
13.0544
12.352
11.6485
10.9443
10.2394
9.53409
8.82844
8.12254
7.41648
6.71031
6.00405
5.29775
4.59142
3.88506
3.1787
2.47233
1.76595
1.05958
0.353197
26.386
26.0917
25.6787
25.1779
24.6147
24.0079
23.3712
22.7143
22.0442
21.3658
20.6826
19.9967
19.3091
18.6202
17.93
17.2385
16.5453
15.8504
15.1539
14.4556
13.7558
13.0545
12.352
11.6486
10.9443
10.2394
9.53407
8.82841
8.12251
7.41645
6.71028
6.00404
5.29774
4.59142
3.88507
3.17871
2.47234
1.76597
1.05959
0.353208
26.443
26.0899
25.6542
25.1478
24.5865
23.9842
23.3524
22.7001
22.0339
21.3586
20.6775
19.993
19.3063
18.6178
17.9279
17.2364
16.5433
15.8485
15.152
14.4539
13.7542
13.0531
12.3509
11.6476
10.9435
10.2388
9.53359
8.82804
8.12224
7.41625
6.71014
6.00393
5.29767
4.59136
3.88503
3.17868
2.47232
1.76595
1.05958
0.353203
26.5677
26.1549
25.6838
25.1583
24.5874
23.9809
23.3477
22.6953
22.0296
21.355
20.6747
19.9908
19.3045
18.6164
17.9268
17.2354
16.5424
15.8477
15.1512
14.4532
13.7536
13.0526
12.3503
11.6471
10.9431
10.2385
9.53333
8.82784
8.12208
7.41613
6.71004
6.00386
5.29762
4.59133
3.885
3.17866
2.47231
1.76594