# vtk DataFile Version 2.0
I need something to put here
ASCII

DATASET STRUCTURED_GRID
DIMENSIONS 41 21 21
POINTS 18081 float
0.000000 0.000000 0.000000
0.100000 0.000000 0.000000
0.200000 0.000000 0.000000
0.300000 0.000000 0.000000
0.400000 0.000000 0.000000
0.500000 0.000000 0.000000
0.600000 0.000000 0.000000
0.700000 0.000000 0.000000
0.800000 0.000000 0.000000
0.900000 0.000000 0.000000
1.000000 0.000000 0.000000
1.100000 0.000000 0.000000
1.200000 0.000000 0.000000
1.300000 0.000000 0.000000
1.400000 0.000000 0.000000
1.500000 0.000000 0.000000
1.600000 0.000000 0.000000
1.700000 0.000000 0.000000
1.800000 0.000000 0.000000
1.900000 0.000000 0.000000
2.000000 0.000000 0.000000
2.100000 0.000000 0.000000
2.200000 0.000000 0.000000
2.300000 0.000000 0.000000
2.400000 0.000000 0.000000
2.500000 0.000000 0.000000
2.600000 0.000000 0.000000
2.700000 0.000000 0.000000
2.800000 0.000000 0.000000
2.900000 0.000000 0.000000
3.000000 0.000000 0.000000
3.100000 0.000000 0.000000
3.200000 0.000000 0.000000
3.300000 0.000000 0.000000
3.400000 0.000000 0.000000
3.500000 0.000000 0.000000
3.600000 0.000000 0.000000
3.700000 0.000000 0.000000
3.800000 0.000000 0.000000
3.900000 0.000000 0.000000
4.000000 0.000000 0.000000
0.000000 0.100000 0.000000
0.100000 0.100000 0.000000
0.200000 0.100000 0.000000
0.300000 0.100000 0.000000
0.400000 0.100000 0.000000
0.500000 0.100000 0.000000
0.600000 0.100000 0.000000
0.700000 0.100000 0.000000
0.800000 0.100000 0.000000
0.900000 0.100000 0.000000
1.000000 0.100000 0.000000
1.100000 0.100000 0.000000
1.200000 0.100000 0.000000
1.300000 0.100000 0.000000
1.400000 0.100000 0.000000
1.500000 0.100000 0.000000
1.600000 0.100000 0.000000
1.700000 0.100000 0.000000
1.800000 0.100000 0.000000
1.900000 0.100000 0.000000
2.000000 0.100000 0.000000
2.100000 0.100000 0.000000
2.200000 0.100000 0.000000
2.300000 0.100000 0.000000
2.400000 0.100000 0.000000
2.500000 0.100000 0.000000
2.600000 0.100000 0.000000
2.700000 0.100000 0.000000
2.800000 0.100000 0.000000
2.900000 0.100000 0.000000
3.000000 0.100000 0.000000
3.100000 0.100000 0.000000
3.200000 0.100000 0.000000
3.300000 0.100000 0.000000
3.400000 0.100000 0.000000
3.500000 0.100000 0.000000
3.600000 0.100000 0.000000
3.700000 0.100000 0.000000
3.800000 0.100000 0.000000
3.900000 0.100000 0.000000
4.000000 0.100000 0.000000
0.000000 0.200000 0.000000
0.100000 0.200000 0.000000
0.200000 0.200000 0.000000
0.300000 0.200000 0.000000
0.400000 0.200000 0.000000
0.500000 0.200000 0.000000
0.600000 0.200000 0.000000
0.700000 0.200000 0.000000
0.800000 0.200000 0.000000
0.900000 0.200000 0.000000
1.000000 0.200000 0.000000
1.100000 0.200000 0.000000
1.200000 0.200000 0.000000
1.300000 0.200000 0.000000
1.400000 0.200000 0.000000
1.500000 0.200000 0.000000
1.600000 0.200000 0.000000
1.700000 0.200000 0.000000
1.800000 0.200000 0.000000
1.900000 0.200000 0.000000
2.000000 0.200000 0.000000
2.100000 0.200000 0.000000
2.200000 0.200000 0.000000
2.300000 0.200000 0.000000
2.400000 0.200000 0.000000
2.500000 0.200000 0.000000
2.600000 0.200000 0.000000
2.700000 0.200000 0.000000
2.800000 0.200000 0.000000
2.900000 0.200000 0.000000
3.000000 0.200000 0.000000
3.100000 0.200000 0.000000
3.200000 0.200000 0.000000
3.300000 0.200000 0.000000
3.400000 0.200000 0.000000
3.500000 0.200000 0.000000
3.600000 0.200000 0.000000
3.700000 0.200000 0.000000
3.800000 0.200000 0.000000
3.900000 0.200000 0.000000
4.000000 0.200000 0.000000
0.000000 0.300000 0.000000
0.100000 0.300000 0.000000
0.200000 0.300000 0.000000
0.300000 0.300000 0.000000
0.400000 0.300000 0.000000
0.500000 0.300000 0.000000
0.600000 0.300000 0.000000
0.700000 0.300000 0.000000
0.800000 0.300000 0.000000
0.900000 0.300000 0.000000
1.000000 0.300000 0.000000
1.100000 0.300000 0.000000
1.200000 0.300000 0.000000
1.300000 0.300000 0.000000
1.400000 0.300000 0.000000
1.500000 0.300000 0.000000
1.600000 0.300000 0.000000
1.700000 0.300000 0.000000
1.800000 0.300000 0.000000
1.900000 0.300000 0.000000
2.000000 0.300000 0.000000
2.100000 0.300000 0.000000
2.200000 0.300000 0.000000
2.300000 0.300000 0.000000
2.400000 0.300000 0.000000
2.500000 0.300000 0.000000
2.600000 0.300000 0.000000
2.700000 0.300000 0.000000
2.800000 0.300000 0.000000
2.900000 0.300000 0.000000
3.000000 0.300000 0.000000
3.100000 0.300000 0.000000
3.200000 0.300000 0.000000
3.300000 0.300000 0.000000
3.400000 0.300000 0.000000
3.500000 0.300000 0.000000
3.600000 0.300000 0.000000
3.700000 0.300000 0.000000
3.800000 0.300000 0.000000
3.900000 0.300000 0.000000
4.000000 0.300000 0.000000
0.000000 0.400000 0.000000
0.100000 0.400000 0.000000
0.200000 0.400000 0.000000
0.300000 0.400000 0.000000
0.400000 0.400000 0.000000
0.500000 0.400000 0.000000
0.600000 0.400000 0.000000
0.700000 0.400000 0.000000
0.800000 0.400000 0.000000
0.900000 0.400000 0.000000
1.000000 0.400000 0.000000
1.100000 0.400000 0.000000
1.200000 0.400000 0.000000
1.300000 0.400000 0.000000
1.400000 0.400000 0.000000
1.500000 0.400000 0.000000
1.600000 0.400000 0.000000
1.700000 0.400000 0.000000
1.800000 0.400000 0.000000
1.900000 0.400000 0.000000
2.000000 0.400000 0.000000
2.100000 0.400000 0.000000
2.200000 0.400000 0.000000
2.300000 0.400000 0.000000
2.400000 0.400000 0.000000
2.500000 0.400000 0.000000
2.600000 0.400000 0.000000
2.700000 0.400000 0.000000
2.800000 0.400000 0.000000
2.900000 0.400000 0.000000
3.000000 0.400000 0.000000
3.100000 0.400000 0.000000
3.200000 0.400000 0.000000
3.300000 0.400000 0.000000
3.400000 0.400000 0.000000
3.500000 0.400000 0.000000
3.600000 0.400000 0.000000
3.700000 0.400000 0.000000
3.800000 0.400000 0.000000
3.900000 0.400000 0.000000
4.000000 0.400000 0.000000
0.000000 0.500000 0.000000
0.100000 0.500000 0.000000
0.200000 0.500000 0.000000
0.300000 0.500000 0.000000
0.400000 0.500000 0.000000
0.500000 0.500000 0.000000
0.600000 0.500000 0.000000
0.700000 0.500000 0.000000
0.800000 0.500000 0.000000
0.900000 0.500000 0.000000
1.000000 0.500000 0.000000
1.100000 0.500000 0.000000
1.200000 0.500000 0.000000
1.300000 0.500000 0.000000
1.400000 0.500000 0.000000
1.500000 0.500000 0.000000
1.600000 0.500000 0.000000
1.700000 0.500000 0.000000
1.800000 0.500000 0.000000
1.900000 0.500000 0.000000
2.000000 0.500000 0.000000
2.100000 0.500000 0.000000
2.200000 0.500000 0.000000
2.300000 0.500000 0.000000
2.400000 0.500000 0.000000
2.500000 0.500000 0.000000
2.600000 0.500000 0.000000
2.700000 0.500000 0.000000
2.800000 0.500000 0.000000
2.900000 0.500000 0.000000
3.000000 0.500000 0.000000
3.100000 0.500000 0.000000
3.200000 0.500000 0.000000
3.300000 0.500000 0.000000
3.400000 0.500000 0.000000
3.500000 0.500000 0.000000
3.600000 0.500000 0.000000
3.700000 0.500000 0.000000
3.800000 0.500000 0.000000
3.900000 0.500000 0.000000
4.000000 0.500000 0.000000
0.000000 0.600000 0.000000
0.100000 0.600000 0.000000
0.200000 0.600000 0.000000
0.300000 0.600000 0.000000
0.400000 0.600000 0.000000
0.500000 0.600000 0.000000
0.600000 0.600000 0.000000
0.700000 0.600000 0.000000
0.800000 0.600000 0.000000
0.900000 0.600000 0.000000
1.000000 0.600000 0.000000
1.100000 0.600000 0.000000
1.200000 0.600000 0.000000
1.300000 0.600000 0.000000
1.400000 0.600000 0.000000
1.500000 0.600000 0.000000
1.600000 0.600000 0.000000
1.700000 0.600000 0.000000
1.800000 0.600000 0.000000
1.900000 0.600000 0.000000
2.000000 0.600000 0.000000
2.100000 0.600000 0.000000
2.200000 0.600000 0.000000
2.300000 0.600000 0.000000
2.400000 0.600000 0.000000
2.500000 0.600000 0.000000
2.600000 0.600000 0.000000
2.700000 0.600000 0.000000
2.800000 0.600000 0.000000
2.900000 0.600000 0.000000
3.000000 0.600000 0.000000
3.100000 0.600000 0.000000
3.200000 0.600000 0.000000
3.300000 0.600000 0.000000
3.400000 0.600000 0.000000
3.500000 0.600000 0.000000
3.600000 0.600000 0.000000
3.700000 0.600000 0.000000
3.800000 0.600000 0.000000
3.900000 0.600000 0.000000
4.000000 0.600000 0.000000
0.000000 0.700000 0.000000
0.100000 0.700000 0.000000
0.200000 0.700000 0.000000
0.300000 0.700000 0.000000
0.400000 0.700000 0.000000
0.500000 0.700000 0.000000
0.600000 0.700000 0.000000
0.700000 0.700000 0.000000
0.800000 0.700000 0.000000
0.900000 0.700000 0.000000
1.000000 0.700000 0.000000
1.100000 0.700000 0.000000
1.200000 0.700000 0.000000
1.300000 0.700000 0.000000
1.400000 0.700000 0.000000
1.500000 0.700000 0.000000
1.600000 0.700000 0.000000
1.700000 0.700000 0.000000
1.800000 0.700000 0.000000
1.900000 0.700000 0.000000
2.000000 0.700000 0.000000
2.100000 0.700000 0.000000
2.200000 0.700000 0.000000
2.300000 0.700000 0.000000
2.400000 0.700000 0.000000
2.500000 0.700000 0.000000
2.600000 0.700000 0.000000
2.700000 0.700000 0.000000
2.800000 0.700000 0.000000
2.900000 0.700000 0.000000
3.000000 0.700000 0.000000
3.100000 0.700000 0.000000
3.200000 0.700000 0.000000
3.300000 0.700000 0.000000
3.400000 0.700000 0.000000
3.500000 0.700000 0.000000
3.600000 0.700000 0.000000
3.700000 0.700000 0.000000
3.800000 0.700000 0.000000
3.900000 0.700000 0.000000
4.000000 0.700000 0.000000
0.000000 0.800000 0.000000
0.100000 0.800000 0.000000
0.200000 0.800000 0.000000
0.300000 0.800000 0.000000
0.400000 0.800000 0.000000
0.500000 0.800000 0.000000
0.600000 0.800000 0.000000
0.700000 0.800000 0.000000
0.800000 0.800000 0.000000
0.900000 0.800000 0.000000
1.000000 0.800000 0.000000
1.100000 0.800000 0.000000
1.200000 0.800000 0.000000
1.300000 0.800000 0.000000
1.400000 0.800000 0.000000
1.500000 0.800000 0.000000
1.600000 0.800000 0.000000
1.700000 0.800000 0.000000
1.800000 0.800000 0.000000
1.900000 0.800000 0.000000
2.000000 0.800000 0.000000
2.100000 0.800000 0.000000
2.200000 0.800000 0.000000
2.300000 0.800000 0.000000
2.400000 0.800000 0.000000
2.500000 0.800000 0.000000
2.600000 0.800000 0.000000
2.700000 0.800000 0.000000
2.800000 0.800000 0.000000
2.900000 0.800000 0.000000
3.000000 0.800000 0.000000
3.100000 0.800000 0.000000
3.200000 0.800000 0.000000
3.300000 0.800000 0.000000
3.400000 0.800000 0.000000
3.500000 0.800000 0.000000
3.600000 0.800000 0.000000
[...]
CELL_DATA 16000
SCALARS pressure float 1
LOOKUP_TABLE default
26.2147
26.032
25.694
25.2428
24.7119
24.1255
23.5007
22.8495
22.18
21.4982
20.8081
20.1122
19.4126
18.7104
18.0067
17.3019
16.5964
15.8907
15.1848
14.4788
13.7727
13.0667
12.3606
11.6544
10.9482
10.242
9.53577
8.82949
8.12318
7.41685
6.71051
6.00415
5.29779
4.59143
3.88506
3.17869
2.47231
1.76594
1.05956
0.353189
26.2733
26.0633
25.7107
25.2517
24.7165
24.1278
23.5018
22.8498
22.1801
21.4981
20.8079
20.112
19.4124
18.7103
18.0065
17.3018
16.5964
15.8906
15.1847
14.4787
13.7727
13.0666
12.3606
11.6544
10.9482
10.242
9.53577
8.82949
8.12318
7.41685
6.71051
6.00415
5.29779
4.59143
3.88506
3.17868
2.47231
1.76594
1.05956
0.353189
26.3934
26.144
25.7645
25.2875
24.7403
24.1436
23.5122
22.8567
22.1846
21.501
20.8098
20.1132
19.4132
18.7108
18.0068
17.3019
16.5964
15.8906
15.1847
14.4787
13.7727
13.0666
12.3606
11.6544
10.9483
10.242
9.53578
8.8295
8.12319
7.41685
6.71051
6.00416
5.29779
4.59143
3.88506
3.17869
2.47231
1.76594
1.05956
0.353189
26.5494
26.2555
25.8427
25.3417
24.7776
24.1691
23.5296
22.8684
22.1925
21.5063
20.8132
20.1155
19.4147
18.7117
18.0074
17.3022
16.5966
15.8907
15.1847
14.4787
13.7727
13.0667
12.3606
11.6545
10.9483
10.2421
9.53581
8.82952
8.1232
7.41686
6.71052
6.00416
5.2978
4.59143
3.88506
3.17869
2.47231
1.76594
1.05956
0.35319
26.719
26.3817
25.9339
25.4066
24.8232
24.2009
23.5515
22.8834
22.2026
21.5132
20.8178
20.1186
19.4167
18.713
18.0082
17.3026
16.5968
15.8907
15.1847
14.4787
13.7727
13.0667
12.3606
11.6545
10.9483
10.2421
9.53584
8.82954
8.12322
7.41688
6.71053
6.00417
5.2978
4.59143
3.88506
3.17869
2.47231
1.76594
1.05957
0.35319
26.8844
26.5082
26.0276
25.4744
24.8716
24.2349
23.5752
22.8998
22.2139
21.5208
20.823
20.122
19.4189
18.7145
18.0091
17.3031
16.597
15.8908
15.1847
14.4787
13.7727
13.0667
12.3607
11.6546
10.9484
10.2422
9.53589
8.82958
8.12324
7.4169
6.71054
6.00418
5.29781
4.59144
3.88506
3.17869
2.47231
1.76594
1.05957
0.353191
27.0318
26.6233
26.1142
25.538
24.9175
24.2676
23.5982
22.9158
22.2248
21.5282
20.828
20.1254
19.4212
18.716
18.01
17.3036
16.5972
15.8909
15.1847
14.4787
13.7728
13.0668
12.3608
11.6546
10.9485
10.2422
9.53593
8.82961
8.12327
7.41692
6.71055
6.00418
5.29781
4.59144
3.88507
3.17869
2.47232
1.76594
1.05957
0.353191
27.1507
26.7175
26.186
25.5913
24.9563
24.2954
23.6179
22.9295
22.2343
21.5347
20.8324
20.1284
19.4232
18.7173
18.0108
17.3041
16.5974
15.8909
15.1847
14.4787
13.7728
13.0668
12.3608
11.6547
10.9485
10.2423
9.53597
8.82964
8.12329
7.41693
6.71056
6.00419
5.29782
4.59144
3.88507
3.17869
2.47232
1.76594
1.05957
0.353192
27.2339
26.784
26.2371
25.6296
24.9844
24.3157
23.6322
22.9396
22.2413
21.5395
20.8357
20.1306
19.4247
18.7182
18.0114
17.3044
16.5975
15.8909
15.1847
14.4787
13.7728
13.0669
12.3609
11.6548
10.9486
10.2423
9.536
8.82967
8.12331
7.41695
6.71057
6.0042
5.29782
4.59145
3.88507
3.17869
2.47232
1.76594
1.05957
0.353192
27.2766
26.8183
26.2637
25.6496
24.9991
24.3263
23.6398
22.9449
22.245
21.5421
20.8374
20.1318
19.4256
18.7188
18.0117
17.3045
16.5975
15.8909
15.1847
14.4787
13.7728
13.0669
12.3609
11.6548
10.9486
10.2423
9.53602
8.82968
8.12332
7.41695
6.71058
6.0042
5.29783
4.59145
3.88507
3.17869
2.47232
1.76594
1.05957
0.353192
27.2766
26.8183
26.2637
25.6496
24.9991
24.3263
23.6398
22.9449
22.245
21.5421
20.8375
20.1318
19.4256
18.7188
18.0117
17.3046
16.5976
15.8909
15.1847
14.4787
13.7728
13.0669
12.3609
11.6548
10.9486
10.2423
9.53602
8.82968
8.12332
7.41695
6.71058
6.0042
5.29783
4.59145
3.88507
3.17869
2.47232
1.76594
1.05957
0.353193
27.2339
26.784
26.2372
25.6296
24.9844
24.3157
23.6323
22.9396
22.2413
21.5396
20.8358
20.1307
19.4248
18.7183
18.0114
17.3044
16.5975
15.8909
15.1847
14.4787
13.7728
13.0669
12.3609
11.6548
10.9486
10.2423
9.53601
8.82967
8.12332
7.41695
6.71058
6.0042
5.29782
4.59145
3.88507
3.17869
2.47232
1.76594
1.05957
0.353193
27.1507
26.7175
26.186
25.5914
24.9564
24.2955
23.6179
22.9296
22.2344
21.5348
20.8325
20.1285
19.4233
18.7174
18.0109
17.3041
16.5974
15.8909
15.1847
14.4787
13.7728
13.0669
12.3608
11.6547
10.9485
10.2423
9.53598
8.82965
8.1233
7.41694
6.71057
6.00419
5.29782
4.59144
3.88507
3.17869
2.47232
1.76594
1.05957
0.353194
27.0318
26.6233
26.1142
25.5381
24.9176
24.2677
23.5983
22.9159
22.2249
21.5284
20.8281
20.1255
19.4214
18.7161
18.0101
17.3037
16.5973
15.8909
15.1848
14.4788
13.7728
13.0668
12.3608
11.6547
10.9485
10.2422
9.53594
8.82962
8.12328
7.41692
6.71056
6.00419
5.29781
4.59144
3.88507
3.17869
2.47232
1.76594
1.05957
0.353194
26.8845
26.5083
26.0277
25.4745
24.8717
24.235
23.5753
22.8999
22.214
21.5209
20.8231
20.1222
19.4191
18.7146
18.0092
17.3033
16.5971
15.8909
15.1848
14.4788
13.7728
13.0668
12.3607
11.6546
10.9484
10.2422
9.53589
8.82958
8.12325
7.4169
6.71054
6.00418
5.29781
4.59144
3.88506
3.17869
2.47232
1.76594
1.05957
0.353193
26.7191
26.3817
25.934
25.4067
24.8233
24.2009
23.5516
22.8835
22.2028
21.5133
20.818
20.1187
19.4168
18.7131
18.0083
17.3028
16.5969
15.8908
15.1848
14.4788
13.7728
13.0667
12.3607
11.6545
10.9484
10.2421
9.53585
8.82955
8.12323
7.41688
6.71053
6.00417
5.2978
4.59143
3.88506
3.17869
2.47232
1.76594
1.05957
0.353193
26.5495
26.2556
25.8428
25.3418
24.7777
24.1692
23.5297
22.8686
22.1926
21.5065
20.8134
20.1157
19.4148
18.7119
18.0075
17.3024
16.5967
15.8908
15.1848
14.4788
13.7728
13.0667
12.3606
11.6545
10.9483
10.2421
9.53582
8.82953
8.12321
7.41687
6.71052
6.00416
5.2978
4.59143
3.88506
3.17869
2.47231
1.76594
1.05957
0.353192
26.3935
26.1441
25.7646
25.2876
24.7404
24.1437
23.5123
22.8568
22.1847
21.5012
20.8099
20.1134
19.4133
18.7109
18.007
17.302
16.5965
15.8907
15.1848
14.4788
13.7728
13.0667
12.3606
11.6545
10.9483
10.2421
9.5358
8.82951
8.12319
7.41686
6.71051
6.00416
5.2978
4.59143
3.88506
3.17869
2.47231
1.76594
1.05957
0.353192
26.2734
26.0634
25.7108
25.2518
24.7166
24.1279
23.5019
22.8499
22.1802
21.4983
20.808
20.1122
19.4126
18.7105
18.0067
17.3019
16.5965
15.8907
15.1848
14.4788
13.7728
13.0667
12.3606
11.6545
10.9483
10.242
9.53579
8.8295
8.12319
7.41686
6.71051
6.00416
5.29779
4.59143
3.88506
3.17869
2.47231
1.76594
1.05956
0.35319
26.2148
26.0321
25.6941
25.2429
24.712
24.1256
23.5008
22.8496
22.1802
21.4984
20.8082
20.1124
19.4127
18.7106
18.0068
17.302
16.5966
15.8908
15.1849
14.4788
13.7728
13.0667
12.3606
11.6545
10.9483
10.242
9.53579
8.8295
8.12319
7.41686
6.71051
6.00416
5.29779
4.59143
3.88506
3.17869
2.47231
1.76594
1.05956
0.353189
26.2733
26.0633
25.7107
25.2517
24.7165
24.1278
23.5018
22.8498
22.1801
21.4981
20.8079
20.112
19.4124
18.7103
18.0065
17.3018
16.5964
15.8906
15.1847
14.4787
13.7727
13.0666
12.3606
11.6544
10.9482
10.242
9.53577
8.82949
8.12318
7.41685
6.71051
6.00415
5.29779
4.59143
3.88506
3.17868
2.47231
1.76594
1.05956
0.353189
26.324
26.0743
25.7047
25.24
24.7042
24.1168
23.4927
22.8426
22.1745
21.494
20.8048
20.1098
19.4108
18.7091
18.0057
17.3012
16.596
15.8904
15.1846
14.4786
13.7726
13.0666
12.3605
11.6544
10.9482
10.242
9.53575
8.82947
8.12317
7.41684
6.7105
6.00415
5.29779
4.59142
3.88505
3.17868
2.47231
1.76594
1.05956
0.353188
26.4442
26.1454
25.746
25.2636
24.7174
24.124
23.4963
22.8443
22.1751
21.494
20.8046
20.1094
19.4104
18.7088
18.0055
17.301
16.5958
15.8902
15.1844
14.4785
13.7726
13.0666
12.3605
11.6544
10.9482
10.242
9.53575
8.82947
8.12316
7.41684
6.7105
6.00415
5.29779
4.59142
3.88505
3.17868
2.47231
1.76594
1.05956
0.353189
26.606
26.2534
25.8177
25.3109
24.7484
24.1441
23.5093
22.8527
22.1804
21.4973
20.8066
20.1107
19.4111
18.7092
18.0056
17.301
16.5958
15.8902
15.1844
14.4785
13.7725
13.0665
12.3605
11.6544
10.9482
10.242
9.53576
8.82948
8.12317
7.41684
6.7105
6.00415
5.29779
4.59142
3.88505
3.17868
2.47231
1.76594
1.05956
0.353188
26.784
26.3789
25.9055
25.3718
24.7901
24.1725
23.5285
22.8654
22.1889
21.5028
20.8102
20.1129
19.4126
18.7101
18.0061
17.3013
16.5959
15.8902
15.1843
14.4784
13.7725
13.0665
12.3605
11.6544
10.9482
10.242
9.53578
8.82949
8.12318
7.41685
6.71051
6.00415
5.29779
4.59142
3.88505
3.17868
2.47231
1.76594
1.05956
0.353188
26.9579
26.5061
25.9974
25.4372
24.8362
24.2045
23.5505
22.8804
22.1989
21.5095
20.8146
20.1159
19.4145
18.7113
18.0068
17.3016
16.596
15.8902
15.1843
14.4784
13.7725
13.0666
12.3605
11.6544
10.9483
10.2421
9.53581
8.82952
8.1232
7.41686
6.71051
6.00416
5.29779
4.59143
3.88505
3.17868
2.47231
1.76594
1.05956
0.353188
27.1127
26.6222
26.0831
25.4994
24.8806
24.2359
23.5723
22.8954
22.2092
21.5164
20.8192
20.1189
19.4165
18.7126
18.0076
17.302
16.5962
15.8902
15.1843
14.4784
13.7725
13.0666
12.3606
11.6545
10.9483
10.2421
9.53584
8.82954
8.12322
7.41688
6.71052
6.00416
5.2978
4.59143
3.88506
3.17868
2.47231
1.76594
1.05956
0.353188
27.2374
26.7173
26.1544
25.5518
24.9185
24.2629
23.5913
22.9086
22.2182
21.5225
20.8233
20.1217
19.4183
18.7137
18.0083
17.3024
16.5963
15.8902
15.1843
14.4784
13.7725
13.0666
12.3606
11.6545
10.9484
10.2421
9.53587
8.82957
8.12324
7.41689
6.71053
6.00417
5.2978
4.59143
3.88506
3.17868
2.47231
1.76594
1.05956
0.353188
27.3246
26.7845
26.2052
25.5895
24.946
24.2826
23.6052
22.9183
22.2249
21.5271
20.8264
20.1238
19.4197
18.7146
18.0089
17.3027
16.5964
15.8903
15.1843
14.4784
13.7725
13.0666
12.3607
11.6546
10.9484
10.2422
9.5359
8.82959
8.12325
7.4169
6.71054
6.00418
5.29781
4.59143
3.88506
3.17869
2.47231
1.76594
1.05956
0.353188
27.3693
26.8193
26.2317
25.6093
24.9605
24.293
23.6126
22.9234
22.2284
21.5295
20.8281
20.1249
19.4205
18.7151
18.0092
17.3029
16.5965
15.8903
15.1843
14.4784
13.7725
13.0667
12.3607
11.6546
10.9484
10.2422
9.53591
8.8296
8.12326
7.41691
6.71055
6.00418
5.29781
4.59143
3.88506
3.17869
2.47231
1.76593
1.05956
0.353188
27.3693
26.8193
26.2317
25.6093
24.9605
24.293
23.6126
22.9235
22.2285
21.5296
20.8281
20.1249
19.4205
18.7151
18.0092
17.3029
16.5965
15.8903
15.1843
14.4784
13.7726
13.0667
12.3607
11.6546
10.9484
10.2422
9.53591
8.8296
8.12326
7.41691
6.71055
6.00418
5.29781
4.59143
3.88506
3.17869
2.47231
1.76593
1.05956
0.353188
27.3246
26.7846
26.2053
25.5896
24.9461
24.2826
23.6052
22.9183
22.2249
21.5272
20.8265
20.1238
19.4198
18.7147
18.0089
17.3027
16.5965
15.8903
15.1843
14.4784
13.7726
13.0667
12.3607
11.6546
10.9484
10.2422
9.5359
8.82959
8.12325
7.4169
6.71054
6.00418
5.29781
4.59143
3.88506
3.17869
2.47231
1.76593
1.05956
0.353188
27.2375
26.7174
26.1544
25.5519
24.9186
24.2629
23.5913
22.9086
22.2183
21.5226
20.8234
20.1218
19.4184
18.7138
18.0084
17.3025
16.5964
15.8903
15.1843
14.4784
13.7726
13.0666
12.3606
11.6545
10.9484
10.2422
9.53588
8.82957
8.12324
7.41689
6.71054
6.00417
5.2978
4.59143
3.88506
3.17868
2.47231
1.76593
1.05956
0.353188
27.1127
26.6222
26.0831
25.4994
24.8807
24.2359
23.5724
22.8955
22.2093
21.5165
20.8193
20.119
19.4166
18.7127
18.0077
17.3021
16.5963
15.8903
15.1844
14.4785
13.7726
13.0666
12.3606
11.6545
10.9483
10.2421
9.53585
8.82955
8.12322
7.41688
6.71053
6.00417
5.2978
4.59143
3.88506
3.17868
2.47231
1.76593
1.05956
0.353189
26.9579
26.5062
25.9975
25.4373
24.8363
24.2046
23.5506
22.8805
22.199
21.5096
20.8147
20.116
19.4146
18.7114
18.007
17.3017
16.5961
15.8903
15.1844
14.4785
13.7726
13.0666
12.3606
11.6545
10.9483
10.2421
9.53582
8.82953
8.12321
7.41687
6.71052
6.00416
5.29779
4.59143
3.88506
3.17868
2.47231
1.76593
1.05956
0.353189
26.7841
26.379
25.9056
25.3718
24.7902
24.1726
23.5286
22.8655
22.189
21.5029
20.8103
20.1131
19.4127
18.7102
18.0063
17.3014
16.596
15.8903
15.1844
14.4785
13.7726
13.0666
12.3605
11.6544
10.9483
10.242
9.53579
8.8295
8.12319
7.41686
6.71051
6.00415
5.29779
4.59142
3.88505
3.17868
2.47231
1.76593
1.05956
0.353189
26.6061
26.2535
25.8177
25.311
24.7485
24.1442
23.5095
22.8528
22.1805
21.4974
20.8067
20.1108
19.4113
18.7094
18.0058
17.3012
16.5959
15.8903
15.1845
14.4786
13.7726
13.0666
12.3605
11.6544
10.9482
10.242
9.53577
8.82949
8.12318
7.41685
6.7105
6.00415
5.29779
4.59142
3.88505
3.17868
2.47231
1.76594
1.05956
0.353189
26.4443
26.1455
25.7461
25.2637
24.7175
24.1241
23.4964
22.8444
22.1753
21.4941
20.8047
20.1096
19.4106
18.709
18.0056
17.3011
16.5959
15.8903
15.1845
14.4786
13.7726
13.0666
12.3605
11.6544
10.9482
10.242
9.53576
8.82948
8.12317
7.41684
6.7105
6.00415
5.29779
4.59142
3.88505
3.17868
2.47231
1.76594
1.05956
0.35319
26.3241
26.0744
25.7048
25.2401
24.7043
24.1169
23.4928
22.8428
22.1747
21.4941
20.8049
20.1099
19.4109
18.7093
18.0059
17.3013
16.5961
15.8905
15.1847
14.4787
13.7727
13.0666
12.3606
11.6544
10.9482
10.242
9.53577
8.82948
8.12317
7.41685
6.7105
6.00415
5.29779
4.59142
3.88506
3.17868
2.47231
1.76594
1.05956
0.353189
26.2734
26.0634
25.7108
25.2518
24.7166
24.1279
23.5019
22.8499
22.1802
21.4983
20.808
20.1122
19.4126
18.7104
18.0067
17.3019
16.5965
15.8907
15.1848
14.4788
13.7728
13.0667
12.3606
11.6545
10.9483
10.242
9.53579
8.8295
8.12319
7.41686
6.71051
6.00416
5.29779
4.59143
3.88506
3.17869
2.47231
1.76594
1.05956
0.353189
26.3934
26.144
25.7645
25.2875
24.7403
24.1436
23.5122
22.8567
22.1846
21.501
20.8098
20.1132
19.4132
18.7108
18.0068
17.3019
16.5964
15.8906
15.1847
14.4787
13.7727
13.0666
12.3606
11.6544
10.9483
10.242
9.53578
8.8295
8.12319
7.41685
6.71051
6.00416
5.29779
4.59143
3.88506
3.17869
2.47231
1.76594
1.05956
0.353189
26.4442
26.1454
25.746
25.2636
24.7174
24.124
23.4963
22.8443
22.1751
21.494
20.8046
20.1094
19.4104
18.7088
18.0055
17.301
16.5958
15.8902
15.1844
14.4785
13.7726
13.0666
12.3605
11.6544
10.9482
10.242
9.53575
8.82947
8.12316
7.41684
6.7105
6.00415
5.29779
4.59142
3.88505
3.17868
2.47231
1.76594
1.05956
0.353189
26.5648
26.2115
25.7795
25.2788
24.7229
24.1246
23.4947
22.8419
22.1726
21.4917
20.8026
20.1079
19.4092
18.7079
18.0047
17.3004
16.5954
15.8899
15.1842
14.4784
13.7725
13.0665
12.3604
11.6543
10.9482
10.242
9.53573
8.82946
8.12315
7.41683
6.71049
6.00414
5.29778
4.59142
3.88505
3.17868
2.47231
1.76594
1.05956
0.353189
26.7303
26.3182
25.847
25.321
24.7489
24.1403
23.5041
22.8473
22.1756
21.4932
20.8033
20.1081
19.4092
18.7077
18.0045
17.3002
16.5952
15.8897
15.1841
14.4783
13.7724
13.0664
12.3604
11.6543
10.9482
10.242
9.53573
8.82945
8.12315
7.41683
6.71049
6.00414
5.29778
4.59142
3.88505
3.17868
2.47231
1.76594
1.05956
0.353189
26.9143
26.4447
25.9331
25.379
24.7875
24.1658
23.5206
22.8579
22.1823
21.4974
20.8058
20.1096
19.41
18.7082
18.0047
17.3002
16.5951
15.8896
15.184
14.4782
13.7724
13.0664
12.3604
11.6543
10.9482
10.242
9.53574
8.82946
8.12316
7.41683
6.71049
6.00414
5.29778
4.59142
3.88505
3.17868
2.47231
1.76594
1.05956
0.353189
27.095
26.574
26.0246
25.4429
24.8316
24.1958
23.5409
22.8714
22.1912
21.5031
20.8095
20.1119
19.4115
18.7091
18.0052
17.3004
16.5951
15.8896
15.1839
14.4781
13.7723
13.0664
12.3604
11.6544
10.9482
10.242
9.53576
8.82948
8.12317
7.41684
6.7105
6.00414
5.29778
4.59142
3.88505
3.17868
2.47231
1.76594
1.05956
0.353188
27.2563
26.6925
26.1105
25.5043
24.8749
24.226
23.5616
22.8854
22.2005
21.5093
20.8136
20.1146
19.4132
18.7101
18.0058
17.3007
16.5952
15.8895
15.1838
14.4781
13.7723
13.0664
12.3605
11.6544
10.9483
10.242
9.53579
8.8295
8.12319
7.41685
6.71051
6.00415
5.29779
4.59142
3.88505
3.17868
2.47231
1.76594
1.05956
0.353188
27.3865
26.7898
26.1823
25.5564
24.9121
24.2522
23.5798
22.8979
22.209
21.515
20.8173
20.1171
19.4148
18.7111
18.0064
17.301
16.5952
15.8895
15.1838
14.4781
13.7723
13.0665
12.3605
11.6544
10.9483
10.2421
9.53582
8.82952
8.1232
7.41686
6.71051
6.00415
5.29779
4.59142
3.88505
3.17868
2.47231
1.76594
1.05956
0.353188
27.4774
26.8586
26.2336
25.594
24.9393
24.2715
23.5933
22.9072
22.2153
21.5192
20.8202
20.119
19.4161
18.7119
18.0068
17.3012
16.5953
15.8894
15.1837
14.4781
13.7723
13.0665
12.3605
11.6545
10.9483
10.2421
9.53584
8.82954
8.12321
7.41687
6.71052
6.00416
5.29779
4.59143
3.88506
3.17868
2.47231
1.76594
1.05956
0.353188
27.524
26.8942
26.2603
25.6137
24.9535
24.2816
23.6004
22.9121
22.2187
21.5215
20.8217
20.12
19.4168
18.7124
18.0071
17.3013
16.5953
15.8894
15.1837
14.4781
13.7723
13.0665
12.3606
11.6545
10.9483
10.2421
9.53585
8.82955
8.12322
7.41688
6.71052
6.00416
5.2978
4.59143
3.88506
3.17868
2.47231
1.76594
1.05956
0.353188
27.524
26.8942
26.2603
25.6137
24.9535
24.2816
23.6004
22.9122
22.2187
21.5215
20.8217
20.12
19.4168
18.7124
18.0071
17.3013
16.5953
15.8894
15.1837
14.4781
13.7724
13.0665
12.3606
11.6545
10.9483
10.2421
9.53585
8.82955
8.12322
7.41688
6.71052
6.00416
5.2978
4.59143
3.88506
3.17868
2.47231
1.76594
1.05956
0.353188
27.4774
26.8587
26.2336
25.5941
24.9393
24.2715
23.5933
22.9072
22.2154
21.5193
20.8202
20.119
19.4162
18.712
18.0069
17.3012
16.5953
15.8895
15.1838
14.4781
13.7724
13.0665
12.3605
11.6545
10.9483
10.2421
9.53584
8.82954
8.12321
7.41687
6.71052
6.00416
5.29779
4.59143
3.88506
3.17868
2.47231
1.76594
1.05956
0.353188
27.3865
26.7899
26.1823
25.5565
24.9122
24.2522
23.5798
22.898
22.209
21.5151
20.8174
20.1171
19.4149
18.7112
18.0065
17.301
16.5953
15.8895
15.1838
14.4781
13.7724
13.0665
12.3605
11.6544
10.9483
10.2421
9.53582
8.82952
8.1232
7.41687
6.71051
6.00416
5.29779
4.59142
3.88505
3.17868
2.47231
1.76594
1.05956
0.353188
27.2564
26.6925
26.1106
25.5044
24.875
24.226
23.5616
22.8855
22.2006
21.5094
20.8137
20.1147
19.4133
18.7102
18.0059
17.3008
16.5953
15.8896
15.1839
14.4782
13.7724
13.0665
12.3605
11.6544
10.9483
10.2421
9.5358
8.82951
8.12319
7.41686
6.71051
6.00415
5.29779
4.59142
3.88505
3.17868
2.47231
1.76594
1.05956
0.353188
27.0951
26.5741
26.0247
25.443
24.8317
24.1959
23.541
22.8715
22.1913
21.5033
20.8096
20.1121
19.4116
18.7092
18.0053
17.3005
16.5952
15.8896
15.184
14.4782
13.7724
13.0665
12.3605
11.6544
10.9482
10.242
9.53577
8.82949
8.12318
7.41685
6.7105
6.00415
5.29779
4.59142
3.88505
3.17868
2.47231
1.76594
1.05956
0.353188
26.9144
26.4448
25.9332
25.3791
24.7876
24.1659
23.5207
22.858
22.1824
21.4975
20.806
20.1097
19.4102
18.7083
18.0049
17.3004
16.5952
15.8897
15.1841
14.4783
13.7724
13.0665
12.3604
11.6544
10.9482
10.242
9.53575
8.82947
8.12317
7.41684
6.7105
6.00414
5.29778
4.59142
3.88505
3.17868
2.47231
1.76594
1.05956
0.353188
26.7304
26.3183
25.8471
25.3211
24.749
24.1404
23.5042
22.8474
22.1757
21.4933
20.8034
20.1082
19.4093
18.7079
18.0047
17.3004
16.5953
15.8899
15.1842
14.4784
13.7725
13.0665
12.3604
11.6543
10.9482
10.242
9.53574
8.82946
8.12316
7.41683
6.71049
6.00414
5.29778
4.59142
3.88505
3.17868
2.47231
1.76594
1.05956
0.353188
26.5649
26.2116
25.7796
25.2789
24.723
24.1247
23.4949
22.842
22.1728
21.4918
20.8028
20.108
19.4093
18.708
18.0049
17.3006
16.5955
15.89
15.1843
14.4785
13.7725
13.0665
12.3605
11.6544
10.9482
10.242
9.53575
8.82947
8.12316
7.41684
6.71049
6.00414
5.29778
4.59142
3.88505
3.17868
2.47231
1.76594
1.05956
0.353189
26.4443
26.1455
25.7461
25.2637
24.7175
24.1241
23.4964
22.8444
22.1753
21.4941
20.8047
20.1096
19.4106
18.709
18.0056
17.3011
16.5959
15.8903
15.1845
14.4786
13.7726
13.0666
12.3605
11.6544
10.9482
10.242
9.53576
8.82948
8.12317
7.41684
6.7105
6.00415
5.29779
4.59142
3.88505
3.17868
2.47231
1.76594
1.05956
0.353189
26.3935
26.1441
25.7646
25.2875
24.7404
24.1437
23.5123
22.8568
22.1847
21.5012
20.8099
20.1134
19.4133
18.7109
18.007
17.302
16.5965
15.8907
15.1848
14.4788
13.7728
13.0667
12.3606
11.6545
10.9483
10.2421
9.5358
8.82951
8.12319
7.41686
6.71051
6.00416
5.29779
4.59143
3.88506
3.17869
2.47231
1.76594
1.05956
0.353189
26.5494
26.2555
25.8427
25.3417
24.7776
24.1691
23.5296
22.8684
22.1925
21.5063
20.8132
20.1155
19.4147
18.7117
18.0074
17.3022
16.5966
15.8907
15.1847
14.4787
13.7727
13.0667
12.3606
11.6545
10.9483
10.2421
9.53581
8.82952
8.1232
7.41686
6.71052
6.00416
5.2978
4.59143
3.88506
3.17869
2.47231
1.76594
1.05956
0.35319
26.606
26.2534
25.8177
25.3109
24.7484
24.1441
23.5093
22.8527
22.1804
21.4973
20.8066
20.1107
19.4111
18.7092
18.0056
17.301
16.5958
15.8902
15.1844
14.4785
13.7725
13.0665
12.3605
11.6544
10.9482
10.242
9.53576
8.82948
8.12317
7.41684
6.7105
6.00415
5.29779
4.59142
3.88505
3.17868
2.47231
1.76594
1.05956
0.353188
26.7303
26.3182
25.847
25.321
24.7489
24.1403
23.5041
22.8473
22.1756
21.4932
20.8033
20.1081
19.4092
18.7077
18.0045
17.3002
16.5952
15.8897
15.1841
14.4783
13.7724
13.0664
12.3604
11.6543
10.9482
10.242
9.53573
8.82945
8.12315