# vtk DataFile Version 2.0
I need something to put here
ASCII

DATASET STRUCTURED_GRID
DIMENSIONS 41 11 21
POINTS 9471 float
0.000000 0.000000 0.000000
0.100000 0.000000 0.000000
0.200000 0.000000 0.000000
0.300000 0.000000 0.000000
0.400000 0.000000 0.000000
0.500000 0.000000 0.000000
0.600000 0.000000 0.000000
0.700000 0.000000 0.000000
0.800000 0.000000 0.000000
0.900000 0.000000 0.000000
1.000000 0.000000 0.000000
1.100000 0.000000 0.000000
1.200000 0.000000 0.000000
1.300000 0.000000 0.000000
1.400000 0.000000 0.000000
1.500000 0.000000 0.000000
1.600000 0.000000 0.000000
1.700000 0.000000 0.000000
1.800000 0.000000 0.000000
1.900000 0.000000 0.000000
2.000000 0.000000 0.000000
2.100000 0.000000 0.000000
2.200000 0.000000 0.000000
2.300000 0.000000 0.000000
2.400000 0.000000 0.000000
2.500000 0.000000 0.000000
2.600000 0.000000 0.000000
2.700000 0.000000 0.000000
2.800000 0.000000 0.000000
2.900000 0.000000 0.000000
3.000000 0.000000 0.000000
3.100000 0.000000 0.000000
3.200000 0.000000 0.000000
3.300000 0.000000 0.000000
3.400000 0.000000 0.000000
3.500000 0.000000 0.000000
3.600000 0.000000 0.000000
3.700000 0.000000 0.000000
3.800000 0.000000 0.000000
3.900000 0.000000 0.000000
4.000000 0.000000 0.000000
0.000000 0.100000 0.000000
0.100000 0.100000 0.000000
0.200000 0.100000 0.000000
0.300000 0.100000 0.000000
0.400000 0.100000 0.000000
0.500000 0.100000 0.000000
0.600000 0.100000 0.000000
0.700000 0.100000 0.000000
0.800000 0.100000 0.000000
0.900000 0.100000 0.000000
1.000000 0.100000 0.000000
1.100000 0.100000 0.000000
1.200000 0.100000 0.000000
1.300000 0.100000 0.000000
1.400000 0.100000 0.000000
1.500000 0.100000 0.000000
1.600000 0.100000 0.000000
1.700000 0.100000 0.000000
1.800000 0.100000 0.000000
1.900000 0.100000 0.000000
2.000000 0.100000 0.000000
2.100000 0.100000 0.000000
2.200000 0.100000 0.000000
2.300000 0.100000 0.000000
2.400000 0.100000 0.000000
2.500000 0.100000 0.000000
2.600000 0.100000 0.000000
2.700000 0.100000 0.000000
2.800000 0.100000 0.000000
2.900000 0.100000 0.000000
3.000000 0.100000 0.000000
3.100000 0.100000 0.000000
3.200000 0.100000 0.000000
3.300000 0.100000 0.000000
3.400000 0.100000 0.000000
3.500000 0.100000 0.000000
3.600000 0.100000 0.000000
3.700000 0.100000 0.000000
3.800000 0.100000 0.000000
3.900000 0.100000 0.000000
4.000000 0.100000 0.000000
0.000000 0.200000 0.000000
0.100000 0.200000 0.000000
0.200000 0.200000 0.000000
0.300000 0.200000 0.000000
0.400000 0.200000 0.000000
0.500000 0.200000 0.000000
0.600000 0.200000 0.000000
0.700000 0.200000 0.000000
0.800000 0.200000 0.000000
0.900000 0.200000 0.000000
1.000000 0.200000 0.000000
1.100000 0.200000 0.000000
1.200000 0.200000 0.000000
1.300000 0.200000 0.000000
1.400000 0.200000 0.000000
1.500000 0.200000 0.000000
1.600000 0.200000 0.000000
1.700000 0.200000 0.000000
1.800000 0.200000 0.000000
1.900000 0.200000 0.000000
2.000000 0.200000 0.000000
2.100000 0.200000 0.000000
2.200000 0.200000 0.000000
2.300000 0.200000 0.000000
2.400000 0.200000 0.000000
2.500000 0.200000 0.000000
2.600000 0.200000 0.000000
2.700000 0.200000 0.000000
2.800000 0.200000 0.000000
2.900000 0.200000 0.000000
3.000000 0.200000 0.000000
3.100000 0.200000 0.000000
3.200000 0.200000 0.000000
3.300000 0.200000 0.000000
3.400000 0.200000 0.000000
3.500000 0.200000 0.000000
3.600000 0.200000 0.000000
3.700000 0.200000 0.000000
3.800000 0.200000 0.000000
3.900000 0.200000 0.000000
4.000000 0.200000 0.000000
0.000000 0.300000 0.000000
0.100000 0.300000 0.000000
0.200000 0.300000 0.000000
0.300000 0.300000 0.000000
0.400000 0.300000 0.000000
0.500000 0.300000 0.000000
0.600000 0.300000 0.000000
0.700000 0.300000 0.000000
0.800000 0.300000 0.000000
0.900000 0.300000 0.000000
1.000000 0.300000 0.000000
1.100000 0.300000 0.000000
1.200000 0.300000 0.000000
1.300000 0.300000 0.000000
1.400000 0.300000 0.000000
1.500000 0.300000 0.000000
1.600000 0.300000 0.000000
1.700000 0.300000 0.000000
1.800000 0.300000 0.000000
1.900000 0.300000 0.000000
2.000000 0.300000 0.000000
2.100000 0.300000 0.000000
2.200000 0.300000 0.000000
2.300000 0.300000 0.000000
2.400000 0.300000 0.000000
2.500000 0.300000 0.000000
2.600000 0.300000 0.000000
2.700000 0.300000 0.000000
2.800000 0.300000 0.000000
2.900000 0.300000 0.000000
3.000000 0.300000 0.000000
3.100000 0.300000 0.000000
3.200000 0.300000 0.000000
3.300000 0.300000 0.000000
3.400000 0.300000 0.000000
3.500000 0.300000 0.000000
3.600000 0.300000 0.000000
3.700000 0.300000 0.000000
3.800000 0.300000 0.000000
3.900000 0.300000 0.000000
4.000000 0.300000 0.000000
0.000000 0.400000 0.000000
0.100000 0.400000 0.000000
0.200000 0.400000 0.000000
0.300000 0.400000 0.000000
0.400000 0.400000 0.000000
0.500000 0.400000 0.000000
0.600000 0.400000 0.000000
0.700000 0.400000 0.000000
0.800000 0.400000 0.000000
0.900000 0.400000 0.000000
1.000000 0.400000 0.000000
1.100000 0.400000 0.000000
1.200000 0.400000 0.000000
1.300000 0.400000 0.000000
1.400000 0.400000 0.000000
1.500000 0.400000 0.000000
1.600000 0.400000 0.000000
1.700000 0.400000 0.000000
1.800000 0.400000 0.000000
1.900000 0.400000 0.000000
2.000000 0.400000 0.000000
2.100000 0.400000 0.000000
2.200000 0.400000 0.000000
2.300000 0.400000 0.000000
2.400000 0.400000 0.000000
2.500000 0.400000 0.000000
2.600000 0.400000 0.000000
2.700000 0.400000 0.000000
2.800000 0.400000 0.000000
2.900000 0.400000 0.000000
3.000000 0.400000 0.000000
3.100000 0.400000 0.000000
3.200000 0.400000 0.000000
3.300000 0.400000 0.000000
3.400000 0.400000 0.000000
3.500000 0.400000 0.000000
3.600000 0.400000 0.000000
3.700000 0.400000 0.000000
3.800000 0.400000 0.000000
3.900000 0.400000 0.000000
4.000000 0.400000 0.000000
0.000000 0.500000 0.000000
0.100000 0.500000 0.000000
0.200000 0.500000 0.000000
0.300000 0.500000 0.000000
0.400000 0.500000 0.000000
0.500000 0.500000 0.000000
0.600000 0.500000 0.000000
0.700000 0.500000 0.000000
0.800000 0.500000 0.000000
0.900000 0.500000 0.000000
1.000000 0.500000 0.000000
1.100000 0.500000 0.000000
1.200000 0.500000 0.000000
1.300000 0.500000 0.000000
1.400000 0.500000 0.000000
1.500000 0.500000 0.000000
1.600000 0.500000 0.000000
1.700000 0.500000 0.000000
1.800000 0.500000 0.000000
1.900000 0.500000 0.000000
2.000000 0.500000 0.000000
2.100000 0.500000 0.000000
2.200000 0.500000 0.000000
2.300000 0.500000 0.000000
2.400000 0.500000 0.000000
2.500000 0.500000 0.000000
2.600000 0.500000 0.000000
2.700000 0.500000 0.000000
2.800000 0.500000 0.000000
2.900000 0.500000 0.000000
3.000000 0.500000 0.000000
3.100000 0.500000 0.000000
3.200000 0.500000 0.000000
3.300000 0.500000 0.000000
3.400000 0.500000 0.000000
3.500000 0.500000 0.000000
3.600000 0.500000 0.000000
3.700000 0.500000 0.000000
3.800000 0.500000 0.000000
3.900000 0.500000 0.000000
4.000000 0.500000 0.000000
0.000000 0.600000 0.000000
0.100000 0.600000 0.000000
0.200000 0.600000 0.000000
0.300000 0.600000 0.000000
0.400000 0.600000 0.000000
0.500000 0.600000 0.000000
0.600000 0.600000 0.000000
0.700000 0.600000 0.000000
0.800000 0.600000 0.000000
0.900000 0.600000 0.000000
1.000000 0.600000 0.000000
1.100000 0.600000 0.000000
1.200000 0.600000 0.000000
1.300000 0.600000 0.000000
1.400000 0.600000 0.000000
1.500000 0.600000 0.000000
1.600000 0.600000 0.000000
1.700000 0.600000 0.000000
1.800000 0.600000 0.000000
1.900000 0.600000 0.000000
2.000000 0.600000 0.000000
2.100000 0.600000 0.000000
2.200000 0.600000 0.000000
2.300000 0.600000 0.000000
2.400000 0.600000 0.000000
2.500000 0.600000 0.000000
2.600000 0.600000 0.000000
2.700000 0.600000 0.000000
2.800000 0.600000 0.000000
2.900000 0.600000 0.000000
3.000000 0.600000 0.000000
3.100000 0.600000 0.000000
3.200000 0.600000 0.000000
3.300000 0.600000 0.000000
3.400000 0.600000 0.000000
3.500000 0.600000 0.000000
3.600000 0.600000 0.000000
3.700000 0.600000 0.000000
3.800000 0.600000 0.000000
3.900000 0.600000 0.000000
4.000000 0.600000 0.000000
0.000000 0.700000 0.000000
0.100000 0.700000 0.000000
0.200000 0.700000 0.000000
0.300000 0.700000 0.000000
0.400000 0.700000 0.000000
0.500000 0.700000 0.000000
0.600000 0.700000 0.000000
0.700000 0.700000 0.000000
0.800000 0.700000 0.000000
0.900000 0.700000 0.000000
1.000000 0.700000 0.000000
1.100000 0.700000 0.000000
1.200000 0.700000 0.000000
1.300000 0.700000 0.000000
1.400000 0.700000 0.000000
1.500000 0.700000 0.000000
1.600000 0.700000 0.000000
1.700000 0.700000 0.000000
1.800000 0.700000 0.000000
1.900000 0.700000 0.000000
2.000000 0.700000 0.000000
2.100000 0.700000 0.000000
2.200000 0.700000 0.000000
2.300000 0.700000 0.000000
2.400000 0.700000 0.000000
2.500000 0.700000 0.000000
2.600000 0.700000 0.000000
2.700000 0.700000 0.000000
2.800000 0.700000 0.000000
2.900000 0.700000 0.000000
3.000000 0.700000 0.000000
3.100000 0.700000 0.000000
3.200000 0.700000 0.000000
3.300000 0.700000 0.000000
3.400000 0.700000 0.000000
3.500000 0.700000 0.000000
3.600000 0.700000 0.000000
3.700000 0.700000 0.000000
3.800000 0.700000 0.000000
3.900000 0.700000 0.000000
4.000000 0.700000 0.000000
0.000000 0.800000 0.000000
0.100000 0.800000 0.000000
0.200000 0.800000 0.000000
0.300000 0.800000 0.000000
0.400000 0.800000 0.000000
0.500000 0.800000 0.000000
0.600000 0.800000 0.000000
0.700000 0.800000 0.000000
0.800000 0.800000 0.000000
0.900000 0.800000 0.000000
1.000000 0.800000 0.000000
1.100000 0.800000 0.000000
1.200000 0.800000 0.000000
1.300000 0.800000 0.000000
1.400000 0.800000 0.000000
1.500000 0.800000 0.000000
1.600000 0.800000 0.000000
1.700000 0.800000 0.000000
1.800000 0.800000 0.000000
1.900000 0.800000 0.000000
2.000000 0.800000 0.000000
2.100000 0.800000 0.000000
2.200000 0.800000 0.000000
2.300000 0.800000 0.000000
2.400000 0.800000 0.000000
2.500000 0.800000 0.000000
2.600000 0.800000 0.000000
2.700000 0.800000 0.000000
2.800000 0.800000 0.000000
2.900000 0.800000 0.000000
3.000000 0.800000 0.000000
3.100000 0.800000 0.000000
3.200000 0.800000 0.000000
3.300000 0.800000 0.000000
3.400000 0.800000 0.000000
3.500000 0.800000 0.000000
3.600000 0.800000 0.000000
[...]
CELL_DATA 8000
SCALARS pressure float 1
LOOKUP_TABLE default
-25.5475
-23.9733
-22.8046
-21.917
-21.1862
-20.5323
-19.9074
-19.2819
-18.6368
-17.9593
-17.2422
-16.4836
-15.6867
-14.859
-14.012
-13.1589
-12.3144
-11.4923
-10.705
-9.96172
-9.26713
-8.6216
-8.02171
-7.46159
-6.93429
-6.4329
-5.95123
-5.48415
-5.02759
-4.5785
-4.13461
-3.6943
-3.25644
-2.82021
-2.38508
-1.95067
-1.51673
-1.0831
-0.649685
-0.216458
-26.7261
-24.1439
-22.7397
-21.8228
-21.1094
-20.4777
-19.8709
-19.2585
-18.6224
-17.951
-17.2378
-16.4815
-15.6856
-14.8583
-14.011
-13.1575
-12.3123
-11.4896
-10.7019
-9.95835
-9.26391
-8.61881
-8.01949
-7.45996
-6.93318
-6.4322
-5.95083
-5.48394
-5.02752
-4.5785
-4.13465
-3.69435
-3.25649
-2.82026
-2.38513
-1.95071
-1.51676
-1.08312
-0.649695
-0.216444
-28.4125
-24.6326
-22.8277
-21.7944
-21.0597
-20.436
-19.8439
-19.2459
-18.6213
-17.9581
-17.2495
-16.4943
-15.6965
-14.865
-14.0122
-13.1524
-12.3008
-11.4723
-10.6803
-9.9346
-9.24019
-8.59697
-8.0007
-7.44468
-6.92131
-6.42333
-5.9444
-5.4794
-5.02437
-4.57636
-4.13321
-3.69341
-3.25587
-2.81986
-2.38487
-1.95055
-1.51667
-1.08306
-0.649651
-0.216405
-30.1781
-25.2673
-23.0324
-21.8445
-21.0615
-20.4296
-19.8439
-19.2565
-18.6423
-17.9867
-17.2815
-16.525
-15.7215
-14.8809
-14.0168
-13.1446
-12.2808
-11.4413
-10.6411
-9.8911
-9.19655
-8.55665
-7.96588
-7.41623
-6.89911
-6.40663
-5.93221
-5.47072
-5.0183
-4.57218
-4.13037
-3.6915
-3.25461
-2.81903
-2.38433
-1.95021
-1.51645
-1.08293
-0.649571
-0.216366
-31.8394
-25.9335
-23.2973
-21.9503
-21.1077
-20.4581
-19.8727
-19.2925
-18.6869
-18.0377
-17.3344
-16.5738
-15.7606
-14.906
-14.0253
-13.1352
-12.2536
-11.3982
-10.586
-9.82964
-9.13483
-8.49964
-7.91668
-7.37606
-6.86774
-6.38301
-5.91493
-5.45837
-5.00965
-4.5662
-4.1263
-3.68875
-3.25277
-2.81781
-2.38354
-1.9497
-1.51613
-1.08274
-0.649464
-0.216332
-33.3058
-26.5609
-23.5762
-22.0837
-21.1818
-20.5115
-19.9233
-19.3483
-18.7501
-18.1064
-17.4036
-16.6367
-15.8107
-14.9384
-14.037
-13.125
-12.2215
-11.3463
-10.5192
-9.75498
-9.0599
-8.43056
-7.8572
-7.32757
-6.82994
-6.35455
-5.89412
-5.44349
-4.99919
-4.55897
-4.12135
-3.6854
-3.25051
-2.81631
-2.38255
-1.94906
-1.51572
-1.08249
-0.649339
-0.216302
-34.5251
-27.1049
-23.8352
-22.2201
-21.2661
-20.5764
-19.9848
-19.4141
-18.8226
-18.1837
-17.4805
-16.7062
-15.8658
-14.9741
-14.0505
-13.1148
-12.1879
-11.2914
-10.4479
-9.67526
-8.97996
-8.35704
-7.79405
-7.27622
-6.78996
-6.3245
-5.87214
-5.42776
-4.98813
-4.55129
-4.11608
-3.68182
-3.2481
-2.8147
-2.38148
-1.94836
-1.51528
-1.08223
-0.649206
-0.216276
-35.4644
-27.5359
-24.0497
-22.3399
-21.3448
-20.6394
-20.0451
-19.4781
-18.8924
-18.2575
-17.5535
-16.7718
-15.9176
-15.0077
-14.0633
-13.1058
-12.1571
-11.2406
-10.3818
-9.60108
-8.90562
-8.28876
-7.73552
-7.2287
-6.75302
-6.29674
-5.85184
-5.41322
-4.97789
-4.54417
-4.11118
-3.67847
-3.24583
-2.81317
-2.38046
-1.94769
-1.51485
-1.08197
-0.64908
-0.216252
-36.1021
-27.8339
-24.2023
-22.4285
-21.4052
-20.6891
-20.0931
-19.529
-18.9476
-18.3156
-17.6108
-16.8231
-15.9579
-15.0335
-14.073
-13.0987
-12.1331
-11.2011
-10.3304
-9.54339
-8.84778
-8.23565
-7.69002
-7.19178
-6.72431
-6.27516
-5.83604
-5.40188
-4.96987
-4.53857
-4.1073
-3.6758
-3.24401
-2.81194
-2.37964
-1.94714
-1.51449
-1.08176
-0.648975
-0.216232
-36.4247
-27.9866
-24.2821
-22.476
-21.4384
-20.7171
-20.1204
-19.5579
-18.9788
-18.3484
-17.6428
-16.8514
-15.9798
-15.0472
-14.0777
-13.094
-12.1191
-11.1786
-10.3012
-9.51083
-8.81518
-8.20572
-7.66435
-7.17093
-6.70807
-6.26291
-5.82701
-5.39536
-4.96522
-4.53529
-4.105
-3.67419
-3.24289
-2.81117
-2.3791
-1.94677
-1.51425
-1.08161
-0.648904
-0.216218
-24.3395
-23.6288
-22.7631
-21.9586
-21.2384
-20.5757
-19.9395
-19.305
-18.6533
-17.9713
-17.2511
-16.4901
-15.6912
-14.8619
-14.0134
-13.159
-12.3132
-11.4901
-10.7022
-9.95848
-9.26393
-8.61876
-8.0194
-7.45984
-6.93306
-6.43208
-5.95072
-5.48384
-5.02743
-4.57842
-4.13458
-3.6943
-3.25645
-2.82023
-2.3851
-1.95069
-1.51674
-1.08311
-0.649684
-0.216438
-24.6765
-23.7086
-22.7309
-21.8984
-21.18
-20.5264
-19.8991
-19.2714
-18.6247
-17.9466
-17.23
-16.4728
-15.6781
-14.8535
-14.01
-13.1607
-12.3196
-11.5005
-10.7155
-9.97346
-9.27932
-8.63345
-8.03262
-7.47116
-6.94235
-6.43946
-5.95641
-5.48815
-5.03062
-4.58076
-4.13627
-3.69551
-3.25731
-2.82083
-2.38552
-1.95098
-1.51695
-1.08325
-0.649784
-0.216468
-25.373
-24.043
-22.8464
-21.917
-21.1642
-20.5033
-19.8789
-19.2572
-18.6165
-17.9434
-17.2301
-16.4746
-15.6802
-14.8548
-14.0097
-13.1584
-12.3152
-11.4939
-10.7072
-9.96441
-9.27038
-8.62541
-8.0259
-7.46591
-6.93846
-6.43671
-5.95456
-5.48695
-5.02989
-4.58033
-4.13604
-3.6954
-3.25727
-2.82083
-2.38554
-1.95101
-1.51698
-1.08328
-0.6498
-0.216455
-26.2118
-24.5105
-23.0629
-22.0049
-21.1954
-20.5138
-19.8856
-19.2669
-18.6314
-17.9627
-17.2516
-16.4953
-15.697
-14.8656
-14.013
-13.1535
-12.3018
-11.473
-10.6804
-9.93447
-9.24022
-8.59745
-8.00169
-7.44606
-6.92292
-6.42499
-5.94599
-5.48084
-5.02562
-4.5774
-4.13406
-3.69408
-3.2564
-2.82027
-2.38519
-1.95079
-1.51685
-1.08321
-0.64976
-0.216436
-27.0639
-25.0226
-23.3315
-22.1391
-21.2641
-20.5547
-19.9179
-19.2998
-18.6683
-18.0031
-17.2927
-16.533
-15.7272
-14.8851
-14.0199
-13.1468
-12.2816
-11.4403
-10.6382
-9.88709
-9.19235
-8.55294
-7.96299
-7.41418
-6.89778
-6.40587
-5.93187
-5.47065
-5.01842
-4.57239
-4.13062
-3.69175
-3.25484
-2.81924
-2.38451
-1.95036
-1.51658
-1.08305
-0.649679
-0.216418
-27.8529
-25.5186
-23.611
-22.294
-21.3549
-20.6161
-19.969
-19.3502
-18.7218
-18.0595
-17.3487
-16.5836
-15.7674
-14.9112
-14.0298
-13.1394
-12.2569
-11.3997
-10.5853
-9.82741
-9.13205
-8.49694
-7.91433
-7.3741
-6.86615
-6.38176
-5.914
-5.45772
-5.00923
-4.56596
-4.12619
-3.68872
-3.25279
-2.81787
-2.3836
-1.94977
-1.51621
-1.08283
-0.649569
-0.216402
-28.5301
-25.9569
-23.8697
-22.4467
-21.4513
-20.6858
-20.0289
-19.4092
-18.7835
-18.1237
-17.4118
-16.6402
-15.8121
-14.9402
-14.0411
-13.132
-12.2308
-11.3561
-10.528
-9.7628
-9.06683
-8.43651
-7.86193
-7.33099
-6.83216
-6.35584
-5.89477
-5.44377
-4.99929
-4.55899
-4.12135
-3.6854
-3.25053
-2.81635
-2.38259
-1.9491
-1.51579
-1.08258
-0.649446
-0.216388
-29.0631
-26.3086
-24.0836
-22.5782
-21.5383
-20.7514
-20.0865
-19.4662
-18.8431
-18.1852
-17.472
-16.6939
-15.8543
-14.9675
-14.0518
-13.1255
-12.2068
-11.3157
-10.4745
-9.70233
-9.00584
-8.38007
-7.81308
-7.29086
-6.80053
-6.33173
-5.87687
-5.43076
-4.99
-4.55244
-4.11679
-3.68226
-3.24839
-2.81489
-2.38161
-1.94846
-1.51537
-1.08233
-0.649326
-0.216374
-29.43
-26.5538
-24.2359
-22.6743
-21.6038
-20.8022
-20.1319
-19.5114
-18.8902
-18.2337
-17.5192
-16.7359
-15.887
-14.9885
-14.06
-13.1203
-12.1881
-11.2842
-10.4329
-9.65523
-8.95828
-8.33606
-7.77499
-7.25958
-6.77587
-6.31291
-5.86288
-5.42057
-4.98269
-4.54727
-4.11317
-3.67975
-3.24665
-2.81371
-2.38081
-1.94792
-1.51502
-1.08212
-0.649225
-0.216361
-29.6173
-26.6801
-24.3154
-22.7255
-21.6396
-20.8305
-20.1576
-19.5371
-18.9169
-18.2612
-17.5458
-16.7592
-15.9049
-14.9996
-14.0639
-13.1168
-12.1772
-11.2662
-10.4093
-9.62857
-8.93138
-8.31116
-7.75343
-7.24183
-6.76184
-6.30216
-5.85484
-5.41467
-4.97843
-4.54422
-4.111
-3.67822
-3.24558
-2.81296
-2.38029
-1.94756
-1.51478
-1.08197
-0.649155
-0.216352
-23.3502
-23.0421
-22.4851
-21.8503
-21.2109
-20.5834
-19.9616
-19.3325
-18.6826
-18.0003
-17.2782
-16.5136
-15.7094
-14.8736
-14.0179
-13.1562
-12.3033
-11.474
-10.6814
-9.93535
-9.24067
-8.59727
-8.00087
-7.44475
-6.92132
-6.4233
-5.94434
-5.47933
-5.0243
-4.57628
-4.13314
-3.69335
-3.25582
-2.81982
-2.38484
-1.95052
-1.51664
-1.08304
-0.649634
-0.216395
-23.3868
-23.029
-22.4289
-21.7801
-21.1425
-20.5219
-19.9071
-19.2835
-18.6377
-17.9593
-17.2416
-16.4827
-15.6858
-14.8586
-14.0124
-13.1602
-12.3164
-11.4949
-10.7079
-9.96497
-9.27083
-8.62576
-8.02618
-7.46612
-6.93862
-6.43683
-5.95465
-5.48701
-5.02992
-4.58035
-4.13605
-3.69541
-3.25727
-2.82083
-2.38554
-1.95101
-1.51698
-1.08328
-0.649796
-0.216452
-23.6262
-23.1858
-22.4951
-21.7912
-21.1278
-20.4985
-19.8832
-19.2626
-18.6209
-17.9463
-17.2319
-16.4757
-15.6808
-14.8555
-14.0109
-13.1602
-12.3174
-11.4962
-10.7095
-9.96667
-9.27286
-8.62817
-8.02886
-7.46888
-6.94126
-6.43921
-5.95669
-5.4887
-5.03129
-4.58142
-4.13688
-3.69604
-3.25775
-2.82119
-2.38581
-1.95121
-1.51713
-1.08339
-0.649862
-0.216455
-23.9966
-23.4523
-22.6474
-21.866
-21.1601
-20.5114
-19.8899
-19.2697
-18.6312
-17.9601
-17.2477
-16.491
-15.6934
-14.8637
-14.0139
-13.1574
-12.3084
-11.4811
-10.6894
-9.94404
-9.25024
-8.60761
-8.0115
-7.45503
-6.93071
-6.43146
-5.95116
-5.48486
-5.02868
-4.57969
-4.13575
-3.69531
-3.25729
-2.82091
-2.38565
-1.95112
-1.51709
-1.08337
-0.649859
-0.21645
-24.4247
-23.7727
-22.8492
-21.9833
-21.2277
-20.5539
-19.9227
-19.3014
-18.6656
-17.9976
-17.286
-16.5262
-15.7215
-14.8821
-14.0212
-13.1531
-12.2919
-11.4528
-10.6515
-9.90103
-9.20705
-8.568
-7.9776
-7.42753
-6.90932
-6.41536
-5.93938
-5.47643
-5.02275
-4.57559
-4.13295
-3.69343
-3.25604
-2.82009
-2.38511
-1.95078
-1.51688
-1.08326
-0.649807
-0.216447
-24.8538
-24.1016
-23.0675
-22.1206
-21.3155
-20.6158
-19.974
-19.3511
-18.718
-18.053
-17.3415
-16.5766
-15.7611
-14.9078
-14.0319
-13.1481
-12.2706
-11.4151
-10.6005
-9.84305
-9.14895
-8.51487
-7.93218
-7.39063
-6.88052
-6.39359
-5.92333
-5.46485
-5.01454
-4.56985
-4.129
-3.69073
-3.25422
-2.81887
-2.38431
-1.95026
-1.51656
-1.08307
-0.649719
-0.216448
-25.2419
-24.4037
-23.2747
-22.2573
-21.4082
-20.685
-20.0336
-19.4095
-18.7794
-18.1177
-17.4061
-16.6347
-15.8064
-14.9371
-14.0443
-13.1432
-12.2477
-11.3735
-10.5432
-9.77784
-9.0839
-8.45569
-7.8818
-7.3498
-6.84866
-6.36947
-5.90552
-5.45195
-5.00536
-4.5634
-4.12452
-3.68766
-3.25212
-2.81746
-2.38337
-1.94965
-1.51616
-1.08284
-0.649614
-0.21645
-25.558
-24.6524
-23.4492
-22.376
-21.4918
-20.7497
-20.0907
-19.4662
-18.8391
-18.1806
-17.4687
-16.6909
-15.8496
-14.9648
-14.0561
-13.1392
-12.2268
-11.3345
-10.4887
-9.71561
-9.02196
-8.39953
-7.83411
-7.31124
-6.8186
-6.34672
-5.88869
-5.43974
-4.99664
-4.55725
-4.12023
-3.68469
-3.25009
-2.81608
-2.38244
-1.94903
-1.51577
-1.08261
-0.649507
-0.21645
-25.7806
-24.8289
-23.5748
-22.4632
-21.5548
-20.7997
-20.1356
-19.5111
-18.8865
-18.2303
-17.518
-16.7348
-15.8831
-14.986
-14.0651
-13.136
-12.2106
-11.3044
-10.4465
-9.6671
-8.97345
-8.35546
-7.79668
-7.28096
-6.79499
-6.32882
-5.87543
-5.43009
-4.98971
-4.55235
-4.11679
-3.68229
-3.24843
-2.81494
-2.38167
-1.94851
-1.51543
-1.08241
-0.649413
-0.216447
-25.8958
-24.9207
-23.6409
-22.5098
-21.5891
-20.8275
-20.1609
-19.5367
-18.9135
-18.2586
-17.5458
-16.7592
-15.9013
-14.997
-14.0694
-13.1337
-12.2011
-11.2872
-10.4226
-9.63972
-8.946
-8.33046
-7.7754
-7.2637
-6.78149
-6.31854
-5.86777
-5.42447
-4.98564
-4.54943
-4.11471
-3.68082
-3.2474
-2.81422
-2.38116
-1.94817
-1.5152
-1.08226
-0.649346
-0.216443
-22.6177
-22.476
-22.1261
-21.6506
-21.1138
-20.5474
-19.9614
-19.3534
-18.7159
-18.0401
-17.3192
-16.551
-15.7393
-14.893
-14.0251
-13.1503
-12.2848
-11.4443
-10.6433
-9.89284
-9.19793
-8.55773
-7.96672
-7.41687
-6.89958
-6.40696
-5.93244
-5.47087
-5.0184
-4.57224
-4.13041
-3.69152
-3.25462
-2.81903
-2.38433
-1.9502
-1.51644
-1.08292
-0.649558
-0.216356
-22.5584
-22.4219
-22.0535
-21.5696
-21.0339
-20.4729
-19.8926
-19.2893
-18.6555
-17.9835
-17.2678
-16.5073
-15.7057
-14.8717
-14.0174
-13.1567
-12.3043
-11.4749
-10.6821
-9.93592
-9.24149
-8.59854
-8.00261
-7.44683
-6.92354
-6.42548
-5.94637
-5.48113
-5.02584
-4.57757
-4.13419
-3.69418
-3.25647
-2.82033
-2.38522
-1.95082
-1.51687
-1.08322
-0.649761
-0.216433
-22.5992
-22.4687
-22.0704
-21.5597
-21.0088
-20.4419
-19.8613
-19.2605
-18.6304
-17.9624
-17.2508
-16.4939
-15.6958
-14.8656
-14.0153
-13.1586
-12.3094
-11.4821
-10.6903
-9.9449
-9.25104
-8.60833
-8.01214
-7.45558
-6.93117
-6.43183
-5.95147
-5.48511
-5.02887
-4.57984
-4.13586
-3.69541
-3.25736
-2.82097
-2.38569
-1.95115
-1.51711
-1.08338
-0.649865
-0.216451
-22.7435
-22.5988
-22.1567
-21.6064
-21.0295
-20.4493
-19.8644
-19.2647
-18.6385
-17.9749
-17.2661
-16.5093
-15.7084
-14.874
-14.0193
-13.1578
-12.3029
-11.469
-10.6715
-9.92322
-9.22987
-8.58999
-7.99758
-7.44477
-6.92354
-6.42666
-5.94808
-5.48296
-5.02755
-4.57906
-4.13542
-3.69518
-3.25726
-2.82094
-2.3857
-1.95118
-1.51715
-1.08342
-0.649896
-0.21646
-22.9571
-22.783
-22.2889
-21.6925
-21.0843
-20.4871
-19.896
-19.2973
-18.6758
-18.0173
-17.3108
-16.5509
-15.7412
-14.8955
-14.0291
-13.1557
-12.2876
-11.4391
-10.6289
-9.87447
-9.18191
-8.54751
-7.96265
-7.41753
-6.90312
-6.41181
-5.93754
-5.47561
-5.02251
-4.57564
-4.13315
-3.69367
-3.25628
-2.82031
-2.3853
-1.95094
-1.51701
-1.08335
-0.649873
-0.216473
-23.2006
-22.9902
-22.4427
-21.7997
-21.1596
-20.5448
-19.9475
-19.3504
-18.735
-18.0833
-17.3796
-16.614
-15.7897
-14.9266
-14.0433
-13.1534
-12.2669
-11.3966
-10.567
-9.80375
-9.11295
-8.48686
-7.91285
-7.37857
-6.8737
-6.39019
-5.92197
-5.46459
-5.01483
-4.57035
-4.12954
-3.69124
-3.25465
-2.81923
-2.38459
-1.95049
-1.51673
-1.0832
-0.64981
-0.216491
-23.4384
-23.1918
-22.5955
-21.9102
-21.2412
-20.6106
-20.0082
-19.4141
-18.8062
-18.1628
-17.4629
-16.6904
-15.8467
-14.9623
-14.0597
-13.1517
-12.2449
-11.3479
-10.4934
-9.71991
-9.03231
-8.4168
-7.85582
-7.33414
-6.84018
-6.36549
-5.90412
-5.4519
-5.00592
-4.56417
-4.12529
-3.68834
-3.25269
-2.81791
-2.38372
-1.94992
-1.51637
-1.08299
-0.649724
-0.216508
-23.6418
-23.3642
-22.7278
-22.0084
-21.3159
-20.6727
-20.0669
-19.4763
-18.8762
-18.2415
-17.5457
-16.7664
-15.9016
-14.9959
-14.0752
-13.1511
-12.2259
-11.302
-10.421
-9.63745
-8.95361
-8.34896
-7.8009
-7.29151
-6.80806
-6.34183
-5.88699
-5.43968
-4.9973
-4.55815
-4.12113
-3.68548
-3.25074
-2.8166
-2.38284
-1.94934
-1.516
-1.08278
-0.649631
-0.216521
-23.7894
-23.4894
-22.825
-22.0816
-21.3727
-20.721
-20.1133
-19.5258
-18.932
-18.3036
-17.6103
-16.8244
-15.9436
-15.0214
-14.0872
-13.1512
-12.2117
-11.2676
-10.3666
-9.57404
-8.89213
-8.29553
-7.75752
-7.25781
-6.78264
-6.32307
-5.87339
-5.42994
-4.9904
-4.55331
-4.11775
-3.68314
-3.24913
-2.8155
-2.38209
-1.94884
-1.51568
-1.08259
-0.649546
-0.216527
-23.8673
-23.5557
-22.8768
-22.1211
-21.404
-20.7481
-20.1396
-19.5542
-18.9639
-18.3391
-17.6467
-16.8566
-15.9661
-15.0338
-14.0929
-13.1508
-12.2035
-11.2486
-10.3368
-9.53886
-8.85761
-8.2653
-7.73285
-7.23856
-6.76806
-6.31226
-5.8655
-5.42424
-4.98632
-4.55041
-4.1157
-3.6817
-3.24812
-2.81479
-2.3816
-1.9485
-1.51545
-1.08245
-0.649482
-0.216529
-22.0902
-22.0117
-21.7825
-21.4261
-20.9832
-20.484
-19.9442
-19.3679
-18.7514
-18.0879
-17.3715
-16.6003
-15.7792
-14.919
-14.0344
-13.1418
-12.2586
-11.4022
-10.5894
-9.83264
-9.13747
-8.50191
-7.91859
-7.37762
-6.86899
-6.38398
-5.91569
-5.45894
-5.01008
-4.56653
-4.12654
-3.68893
-3.2529
-2.81791
-2.38361
-1.94974
-1.51616
-1.08275
-0.649465
-0.216326
-22.0071
-21.9455
-21.7048
-21.34
-20.8959
-20.3996
-19.8634
-19.29
-18.676
-18.0159
-17.3053
-16.5434
-15.7353
-14.8912
-14.0246
-13.1505
-12.2848
-11.4432
-10.641
-9.8897
-9.19479
-8.55515
-7.96493
-7.41584
-6.89917
-6.407
-5.93277
-5.47136
-5.01897
-4.57283
-4.13097
-3.69202
-3.25504
-2.81939
-2.38463
-1.95044
-1.51664
-1.08308
-0.649695
-0.216419
-21.9664
-21.9356
-21.6892
-21.3123
-20.8597
-20.3601
-19.8246
-19.2541
-18.6443
-17.9891
-17.2834
-16.5262
-15.7224
-14.8832
-14.0225
-13.1545
-12.2935
-11.4545
-10.6534
-9.90302
-9.209
-8.56983
-7.97925
-7.42897
-6.91053
-6.41637
-5.9402
-5.47709
-5.02328
-4.576
-4.13328
-3.69369
-3.25624
-2.82025
-2.38523
-1.95087
-1.51694
-1.0833
-0.649829
-0.216452
-22.0046
-21.9873
-21.7281
-21.3331
-20.8667
-20.3602
-19.8238
-19.2571
-18.6537
-18.0053
-17.3043
-16.5473
-15.7392
-14.8945
-14.0287
-13.1558
-12.2881
-11.4399
-10.6299
-9.87561
-9.18307
-8.54863
-7.96366
-7.41842
-6.90388
-6.41245
-5.93805
-5.47603
-5.02284
-4.57591
-4.13336
-3.69384
-3.25641
-2.82041
-2.38538
-1.951
-1.51705
-1.08338
-0.649889
-0.216477
-22.1114
-22.0889
-21.8085
-21.3903
-20.907
-20.3918
-19.8547
-19.2936
-18.6997
-18.0615
-17.3664
-16.6058
-15.7838
-14.9229
-14.0427
-13.1563
-12.2723
-11.4024
-10.5721
-9.80925
-9.11989
-8.4952
-7.92188
-7.38745
-6.88177
-6.3971
-5.92761
-5.46904
-5.01824
-4.57291
-4.13142
-3.69261
-3.25564
-2.81993
-2.38509
-1.95083
-1.51697
-1.08335
-0.649892
-0.216506
-22.26
-22.2201
-21.9131
-21.4697
-20.9685
-20.4448
-19.9081
-19.3552
-18.775
-18.1519
-17.4662
-16.6993
-15.8516
-14.9641
-14.0623
-13.1574
-12.2512
-11.3464
-10.4816
-9.7066
-9.02429
-8.41561
-7.85997
-7.34135
-6.84846
-6.37355
-5.91124
-5.4578
-5.0106
-4.56777
-4.128
-3.69034
-3.25415
-2.81896
-2.38447
-1.95044
-1.51673
-1.08323
-0.649852
-0.216539
-22.4203
-22.3581
-22.0237
-21.5561
-21.0384
-20.5073
-19.9728
-19.4304
-18.8676
-18.2649
-17.5939
-16.8204
-15.9327
-15.0106
-14.084
-13.1603
-12.232
-11.2803
-10.3644
-9.57645
-8.90709
-8.32056
-7.78722
-7.2876
-6.80969
-6.34606
-5.892
-5.44449
-5.00148
-4.56156
-4.1238
-3.68752
-3.25227
-2.81772
-2.38365
-1.94992
-1.51641
-1.08305
-0.649784
-0.216571
-22.5655
-22.4817
-22.1234
-21.6353
-21.104
-20.5677
-20.0362
-19.5049
-18.9601
-18.3794
-17.7261
-16.9478
-16.0106
-15.0531
-14.1039
-13.1654
-12.2215
-11.2185
-10.2412
-9.44251
-8.78935
-8.22666
-7.7161
-7.23538
-6.77212
-6.31941
-5.87332
-5.43151
-4.99252
-4.55543
-4.11962
-3.68469
-3.25036
-2.81644
-2.3828
-1.94936
-1.51606
-1.08285
-0.649704
-0.216596
-22.6745
-22.5743
-22.1985
-21.6956
-21.1548
-20.6152
-20.0868
-19.5644
-19.0335
-18.4684
-17.8249
-17.0378
-16.0681
-15.0844
-14.1202
-13.1724
-12.214
-11.1757
-10.1573
-9.34438
-8.69911
-8.15308
-7.65985
-7.19393
-6.74224
-6.29819
-5.8584
-5.4211
-4.98531
-4.55045
-4.11621
-3.68235
-3.24877
-2.81536
-2.38207
-1.94888
-1.51575
-1.08267
-0.649628
-0.21661
-22.7332
-22.6242
-22.2392
-21.7287
-21.1831
-20.6421
-20.1156
-19.5986
-19.0755
-18.5189
-17.8798
-17.0864
-16.0974
-15.0973
-14.1279
-13.1764
-12.2098
-11.154
-10.1141
-9.29199
-8.64946
-8.11183
-7.62799
-7.1703
-6.72512
-6.28595
-5.84973
-5.415
-4.98103
-4.54746
-4.11412
-3.6809
-3.24775
-2.81465
-2.38159
-1.94854
-1.51553
-1.08254
-0.649568
-0.216615
-21.716
-21.6586
-21.4955
-21.2196
-20.851
-20.4129
-19.9205
-19.3798
-18.7888
-18.1415
-17.4317
-16.6578
-15.826
-14.9494
-14.0452
-13.1313
-12.2268
-11.3513
-10.5239
-9.75952
-9.06415
-8.43441
-7.86055
-7.3304
-6.83226
-6.35642
-5.8956
-5.44465
-5.00009
-4.55966
-4.12189
-3.68582
-3.25084
-2.81656
-2.38273
-1.94919
-1.51581
-1.08255
-0.649365
-0.216303
-21.6329
-21.5919
-21.4183
-21.1323
-20.7598
-20.3214
-19.8298
-19.2895
-18.6991
-18.0541
-17.3502
-16.5873
-15.7714
-14.9148
-14.0332
-13.1427
-12.2603
-11.4034
-10.5892
-9.83146
-9.13601
-8.50065
-7.91765
-7.37697
-6.86857
-6.38375
-5.91561
-5.45901
-5.01025
-4.56677
-4.12682
-3.68923
-3.25318
-2.81817
-2.38383
-1.94994
-1.51633
-1.08291
-0.649611
-0.216411
-21.5623
-21.5559
-21.3847
-21.0928
-20.7152
-20.2751
-19.7848
-19.2481
-18.6628
-18.0239
-17.3262
-16.5686
-15.757
-14.906
-14.0315
-13.1488
-12.2722
-11.4176
-10.6036
-9.84647
-9.15243
-8.5182
-7.93521
-7.39328
-6.88277
-6.39545
-5.92486
-5.46608
-5.01553
-4.57064
-4.12962
-3.69123
-3.25461
-2.81918
-2.38454
-1.95044
-1.51668
-1.08315
-0.649767
-0.216459
-21.5534
-21.5665
-21.3946
-21.0952
-20.7113
-20.2692
-19.7818
-19.2522
-18.6772
-18.0491
-17.3592
-16.6015
-15.7819
-14.9219
-14.0407
-13.1524
-12.2672
-11.398
-10.5693
-9.80644
-9.11576
-8.48955
-7.9153
-7.38071
-6.87551
-6.39169
-5.9232
-5.46559
-5.01563
-4.57099
-4.13005
-3.69164
-3.25497
-2.81948
-2.38479
-1.95063
-1.51684
-1.08327
-0.649852
-0.216501
-21.609
-21.6222
-21.4417
-21.1315
-20.74
-20.2963
-19.8141
-19.2965
-18.7385
-18.1291
-17.4516
-16.6897
-15.845
-14.9598
-14.0596
-13.156
-12.2509
-11.3471
-10.4829
-9.70828
-9.02605
-8.41728
-7.86146
-7.34263
-6.84954
-6.37443
-5.91196
-5.45838
-5.01107
-4.56815
-4.1283
-3.69058
-3.25434
-2.81911
-2.38458
-1.95053
-1.5168
-1.08327
-0.649877
-0.216545
-21.7103
-21.7098
-21.514
-21.1903
-20.7908
-20.3465
-19.8725
-19.3722
-18.8401
-18.2611
-17.6076
-16.8402
-15.9418
-15.0126
-14.0841
-13.1617
-12.2333
-11.2685
-10.3351
-9.54598
-8.8843
-8.30659
-7.78012
-7.28499
-6.80966
-6.34731
-5.89374
-5.44627
-5.00309
-4.56292