# vtk DataFile Version 2.0
I need something to put here
ASCII

DATASET STRUCTURED_GRID
DIMENSIONS 41 11 21
POINTS 9471 float
0.000000 0.000000 0.000000
0.100000 0.000000 0.000000
0.200000 0.000000 0.000000
0.300000 0.000000 0.000000
0.400000 0.000000 0.000000
0.500000 0.000000 0.000000
0.600000 0.000000 0.000000
0.700000 0.000000 0.000000
0.800000 0.000000 0.000000
0.900000 0.000000 0.000000
1.000000 0.000000 0.000000
1.100000 0.000000 0.000000
1.200000 0.000000 0.000000
1.300000 0.000000 0.000000
1.400000 0.000000 0.000000
1.500000 0.000000 0.000000
1.600000 0.000000 0.000000
1.700000 0.000000 0.000000
1.800000 0.000000 0.000000
1.900000 0.000000 0.000000
2.000000 0.000000 0.000000
2.100000 0.000000 0.000000
2.200000 0.000000 0.000000
2.300000 0.000000 0.000000
2.400000 0.000000 0.000000
2.500000 0.000000 0.000000
2.600000 0.000000 0.000000
2.700000 0.000000 0.000000
2.800000 0.000000 0.000000
2.900000 0.000000 0.000000
3.000000 0.000000 0.000000
3.100000 0.000000 0.000000
3.200000 0.000000 0.000000
3.300000 0.000000 0.000000
3.400000 0.000000 0.000000
3.500000 0.000000 0.000000
3.600000 0.000000 0.000000
3.700000 0.000000 0.000000
3.800000 0.000000 0.000000
3.900000 0.000000 0.000000
4.000000 0.000000 0.000000
0.000000 0.100000 0.000000
0.100000 0.100000 0.000000
0.200000 0.100000 0.000000
0.300000 0.100000 0.000000
0.400000 0.100000 0.000000
0.500000 0.100000 0.000000
0.600000 0.100000 0.000000
0.700000 0.100000 0.000000
0.800000 0.100000 0.000000
0.900000 0.100000 0.000000
1.000000 0.100000 0.000000
1.100000 0.100000 0.000000
1.200000 0.100000 0.000000
1.300000 0.100000 0.000000
1.400000 0.100000 0.000000
1.500000 0.100000 0.000000
1.600000 0.100000 0.000000
1.700000 0.100000 0.000000
1.800000 0.100000 0.000000
1.900000 0.100000 0.000000
2.000000 0.100000 0.000000
2.100000 0.100000 0.000000
2.200000 0.100000 0.000000
2.300000 0.100000 0.000000
2.400000 0.100000 0.000000
2.500000 0.100000 0.000000
2.600000 0.100000 0.000000
2.700000 0.100000 0.000000
2.800000 0.100000 0.000000
2.900000 0.100000 0.000000
3.000000 0.100000 0.000000
3.100000 0.100000 0.000000
3.200000 0.100000 0.000000
3.300000 0.100000 0.000000
3.400000 0.100000 0.000000
3.500000 0.100000 0.000000
3.600000 0.100000 0.000000
3.700000 0.100000 0.000000
3.800000 0.100000 0.000000
3.900000 0.100000 0.000000
4.000000 0.100000 0.000000
0.000000 0.200000 0.000000
0.100000 0.200000 0.000000
0.200000 0.200000 0.000000
0.300000 0.200000 0.000000
0.400000 0.200000 0.000000
0.500000 0.200000 0.000000
0.600000 0.200000 0.000000
0.700000 0.200000 0.000000
0.800000 0.200000 0.000000
0.900000 0.200000 0.000000
1.000000 0.200000 0.000000
1.100000 0.200000 0.000000
1.200000 0.200000 0.000000
1.300000 0.200000 0.000000
1.400000 0.200000 0.000000
1.500000 0.200000 0.000000
1.600000 0.200000 0.000000
1.700000 0.200000 0.000000
1.800000 0.200000 0.000000
1.900000 0.200000 0.000000
2.000000 0.200000 0.000000
2.100000 0.200000 0.000000
2.200000 0.200000 0.000000
2.300000 0.200000 0.000000
2.400000 0.200000 0.000000
2.500000 0.200000 0.000000
2.600000 0.200000 0.000000
2.700000 0.200000 0.000000
2.800000 0.200000 0.000000
2.900000 0.200000 0.000000
3.000000 0.200000 0.000000
3.100000 0.200000 0.000000
3.200000 0.200000 0.000000
3.300000 0.200000 0.000000
3.400000 0.200000 0.000000
3.500000 0.200000 0.000000
3.600000 0.200000 0.000000
3.700000 0.200000 0.000000
3.800000 0.200000 0.000000
3.900000 0.200000 0.000000
4.000000 0.200000 0.000000
0.000000 0.300000 0.000000
0.100000 0.300000 0.000000
0.200000 0.300000 0.000000
0.300000 0.300000 0.000000
0.400000 0.300000 0.000000
0.500000 0.300000 0.000000
0.600000 0.300000 0.000000
0.700000 0.300000 0.000000
0.800000 0.300000 0.000000
0.900000 0.300000 0.000000
1.000000 0.300000 0.000000
1.100000 0.300000 0.000000
1.200000 0.300000 0.000000
1.300000 0.300000 0.000000
1.400000 0.300000 0.000000
1.500000 0.300000 0.000000
1.600000 0.300000 0.000000
1.700000 0.300000 0.000000
1.800000 0.300000 0.000000
1.900000 0.300000 0.000000
2.000000 0.300000 0.000000
2.100000 0.300000 0.000000
2.200000 0.300000 0.000000
2.300000 0.300000 0.000000
2.400000 0.300000 0.000000
2.500000 0.300000 0.000000
2.600000 0.300000 0.000000
2.700000 0.300000 0.000000
2.800000 0.300000 0.000000
2.900000 0.300000 0.000000
3.000000 0.300000 0.000000
3.100000 0.300000 0.000000
3.200000 0.300000 0.000000
3.300000 0.300000 0.000000
3.400000 0.300000 0.000000
3.500000 0.300000 0.000000
3.600000 0.300000 0.000000
3.700000 0.300000 0.000000
3.800000 0.300000 0.000000
3.900000 0.300000 0.000000
4.000000 0.300000 0.000000
0.000000 0.400000 0.000000
0.100000 0.400000 0.000000
0.200000 0.400000 0.000000
0.300000 0.400000 0.000000
0.400000 0.400000 0.000000
0.500000 0.400000 0.000000
0.600000 0.400000 0.000000
0.700000 0.400000 0.000000
0.800000 0.400000 0.000000
0.900000 0.400000 0.000000
1.000000 0.400000 0.000000
1.100000 0.400000 0.000000
1.200000 0.400000 0.000000
1.300000 0.400000 0.000000
1.400000 0.400000 0.000000
1.500000 0.400000 0.000000
1.600000 0.400000 0.000000
1.700000 0.400000 0.000000
1.800000 0.400000 0.000000
1.900000 0.400000 0.000000
2.000000 0.400000 0.000000
2.100000 0.400000 0.000000
2.200000 0.400000 0.000000
2.300000 0.400000 0.000000
2.400000 0.400000 0.000000
2.500000 0.400000 0.000000
2.600000 0.400000 0.000000
2.700000 0.400000 0.000000
2.800000 0.400000 0.000000
2.900000 0.400000 0.000000
3.000000 0.400000 0.000000
3.100000 0.400000 0.000000
3.200000 0.400000 0.000000
3.300000 0.400000 0.000000
3.400000 0.400000 0.000000
3.500000 0.400000 0.000000
3.600000 0.400000 0.000000
3.700000 0.400000 0.000000
3.800000 0.400000 0.000000
3.900000 0.400000 0.000000
4.000000 0.400000 0.000000
0.000000 0.500000 0.000000
0.100000 0.500000 0.000000
0.200000 0.500000 0.000000
0.300000 0.500000 0.000000
0.400000 0.500000 0.000000
0.500000 0.500000 0.000000
0.600000 0.500000 0.000000
0.700000 0.500000 0.000000
0.800000 0.500000 0.000000
0.900000 0.500000 0.000000
1.000000 0.500000 0.000000
1.100000 0.500000 0.000000
1.200000 0.500000 0.000000
1.300000 0.500000 0.000000
1.400000 0.500000 0.000000
1.500000 0.500000 0.000000
1.600000 0.500000 0.000000
1.700000 0.500000 0.000000
1.800000 0.500000 0.000000
1.900000 0.500000 0.000000
2.000000 0.500000 0.000000
2.100000 0.500000 0.000000
2.200000 0.500000 0.000000
2.300000 0.500000 0.000000
2.400000 0.500000 0.000000
2.500000 0.500000 0.000000
2.600000 0.500000 0.000000
2.700000 0.500000 0.000000
2.800000 0.500000 0.000000
2.900000 0.500000 0.000000
3.000000 0.500000 0.000000
3.100000 0.500000 0.000000
3.200000 0.500000 0.000000
3.300000 0.500000 0.000000
3.400000 0.500000 0.000000
3.500000 0.500000 0.000000
3.600000 0.500000 0.000000
3.700000 0.500000 0.000000
3.800000 0.500000 0.000000
3.900000 0.500000 0.000000
4.000000 0.500000 0.000000
0.000000 0.600000 0.000000
0.100000 0.600000 0.000000
0.200000 0.600000 0.000000
0.300000 0.600000 0.000000
0.400000 0.600000 0.000000
0.500000 0.600000 0.000000
0.600000 0.600000 0.000000
0.700000 0.600000 0.000000
0.800000 0.600000 0.000000
0.900000 0.600000 0.000000
1.000000 0.600000 0.000000
1.100000 0.600000 0.000000
1.200000 0.600000 0.000000
1.300000 0.600000 0.000000
1.400000 0.600000 0.000000
1.500000 0.600000 0.000000
1.600000 0.600000 0.000000
1.700000 0.600000 0.000000
1.800000 0.600000 0.000000
1.900000 0.600000 0.000000
2.000000 0.600000 0.000000
2.100000 0.600000 0.000000
2.200000 0.600000 0.000000
2.300000 0.600000 0.000000
2.400000 0.600000 0.000000
2.500000 0.600000 0.000000
2.600000 0.600000 0.000000
2.700000 0.600000 0.000000
2.800000 0.600000 0.000000
2.900000 0.600000 0.000000
3.000000 0.600000 0.000000
3.100000 0.600000 0.000000
3.200000 0.600000 0.000000
3.300000 0.600000 0.000000
3.400000 0.600000 0.000000
3.500000 0.600000 0.000000
3.600000 0.600000 0.000000
3.700000 0.600000 0.000000
3.800000 0.600000 0.000000
3.900000 0.600000 0.000000
4.000000 0.600000 0.000000
0.000000 0.700000 0.000000
0.100000 0.700000 0.000000
0.200000 0.700000 0.000000
0.300000 0.700000 0.000000
0.400000 0.700000 0.000000
0.500000 0.700000 0.000000
0.600000 0.700000 0.000000
0.700000 0.700000 0.000000
0.800000 0.700000 0.000000
0.900000 0.700000 0.000000
1.000000 0.700000 0.000000
1.100000 0.700000 0.000000
1.200000 0.700000 0.000000
1.300000 0.700000 0.000000
1.400000 0.700000 0.000000
1.500000 0.700000 0.000000
1.600000 0.700000 0.000000
1.700000 0.700000 0.000000
1.800000 0.700000 0.000000
1.900000 0.700000 0.000000
2.000000 0.700000 0.000000
2.100000 0.700000 0.000000
2.200000 0.700000 0.000000
2.300000 0.700000 0.000000
2.400000 0.700000 0.000000
2.500000 0.700000 0.000000
2.600000 0.700000 0.000000
2.700000 0.700000 0.000000
2.800000 0.700000 0.000000
2.900000 0.700000 0.000000
3.000000 0.700000 0.000000
3.100000 0.700000 0.000000
3.200000 0.700000 0.000000
3.300000 0.700000 0.000000
3.400000 0.700000 0.000000
3.500000 0.700000 0.000000
3.600000 0.700000 0.000000
3.700000 0.700000 0.000000
3.800000 0.700000 0.000000
3.900000 0.700000 0.000000
4.000000 0.700000 0.000000
0.000000 0.800000 0.000000
0.100000 0.800000 0.000000
0.200000 0.800000 0.000000
0.300000 0.800000 0.000000
0.400000 0.800000 0.000000
0.500000 0.800000 0.000000
0.600000 0.800000 0.000000
0.700000 0.800000 0.000000
0.800000 0.800000 0.000000
0.900000 0.800000 0.000000
1.000000 0.800000 0.000000
1.100000 0.800000 0.000000
1.200000 0.800000 0.000000
1.300000 0.800000 0.000000
1.400000 0.800000 0.000000
1.500000 0.800000 0.000000
1.600000 0.800000 0.000000
1.700000 0.800000 0.000000
1.800000 0.800000 0.000000
1.900000 0.800000 0.000000
2.000000 0.800000 0.000000
2.100000 0.800000 0.000000
2.200000 0.800000 0.000000
2.300000 0.800000 0.000000
2.400000 0.800000 0.000000
2.500000 0.800000 0.000000
2.600000 0.800000 0.000000
2.700000 0.800000 0.000000
2.800000 0.800000 0.000000
2.900000 0.800000 0.000000
3.000000 0.800000 0.000000
3.100000 0.800000 0.000000
3.200000 0.800000 0.000000
3.300000 0.800000 0.000000
3.400000 0.800000 0.000000
3.500000 0.800000 0.000000
3.600000 0.800000 0.000000
[...]
CELL_DATA 8000
SCALARS pressure float 1
LOOKUP_TABLE default
-26.0551
-24.4867
-23.3222
-22.4326
-21.6931
-21.0251
-20.3827
-19.7382
-19.0736
-18.3771
-17.6416
-16.8653
-16.0512
-15.2071
-14.3443
-13.4762
-12.6174
-11.7818
-10.9817
-10.2258
-9.5188
-8.86082
-8.24828
-7.67526
-7.13482
-6.62013
-6.1251
-5.64466
-5.17483
-4.71255
-4.25559
-3.80231
-3.35156
-2.90253
-2.45466
-2.00756
-1.56096
-1.11469
-0.668637
-0.222779
-27.2301
-24.6549
-23.2551
-22.3365
-21.6147
-20.9694
-20.3455
-19.7145
-19.0592
-18.369
-17.6375
-16.8634
-16.0504
-15.2065
-14.3434
-13.4747
-12.6151
-11.7788
-10.9781
-10.222
-9.51519
-8.85769
-8.24578
-7.67339
-7.13353
-6.6193
-6.1246
-5.6444
-5.17471
-4.71252
-4.25561
-3.80236
-3.35162
-2.90259
-2.45472
-2.00761
-1.561
-1.11471
-0.668648
-0.222762
-28.9146
-25.1433
-23.3437
-22.3089
-21.5658
-20.9282
-20.319
-19.7021
-19.0585
-18.3764
-17.6495
-16.8765
-16.0614
-15.2132
-14.3442
-13.4689
-12.6027
-11.7605
-10.9556
-10.1974
-9.4908
-8.83534
-8.22661
-7.65784
-7.12145
-6.61026
-6.11803
-5.63973
-5.17146
-4.7103
-4.2541
-3.80135
-3.35096
-2.90216
-2.45444
-2.00744
-1.56089
-1.11465
-0.668602
-0.222724
-30.6824
-25.7812
-23.5518
-22.3622
-21.5701
-20.9238
-20.3204
-19.7138
-19.0803
-18.4057
-17.6821
-16.9076
-16.0865
-15.2288
-14.3481
-13.46
-12.5812
-11.7279
-10.9148
-10.1526
-9.44612
-8.79426
-8.19129
-7.62906
-7.09902
-6.59337
-6.10568
-5.63089
-5.16525
-4.706
-4.25116
-3.79936
-3.34962
-2.90127
-2.45386
-2.00706
-1.56066
-1.1145
-0.668518
-0.222685
-32.3498
-26.4533
-23.8223
-22.4728
-21.6201
-20.9551
-20.3511
-19.7512
-19.1259
-18.4576
-17.7357
-16.9569
-16.1258
-15.2536
-14.3555
-13.4488
-12.5517
-11.6824
-10.8574
-10.0892
-9.38291
-8.73621
-8.14142
-7.58848
-7.06739
-6.56957
-6.08824
-5.61839
-5.15645
-4.69988
-4.24695
-3.7965
-3.34769
-2.89998
-2.45301
-2.00651
-1.5603
-1.11429
-0.668403
-0.222649
-33.8244
-27.0883
-24.1079
-22.6117
-21.6984
-21.0115
-20.4038
-19.8085
-19.1904
-18.5275
-17.8059
-17.0206
-16.1762
-15.2854
-14.3657
-13.4361
-12.5165
-11.6272
-10.7876
-10.012
-9.30603
-8.66578
-8.08109
-7.5395
-7.0293
-6.54093
-6.06727
-5.60336
-5.14584
-4.69249
-4.24187
-3.79302
-3.34533
-2.8984
-2.45195
-2.00581
-1.55986
-1.11402
-0.668267
-0.222617
-35.0522
-27.6399
-24.3735
-22.7534
-21.7867
-21.0792
-20.4673
-19.8758
-19.2641
-18.6058
-17.8837
-17.0907
-16.2314
-15.3205
-14.3774
-13.423
-12.4792
-11.5684
-10.7128
-9.9293
-9.22382
-8.59067
-8.01693
-7.48757
-6.989
-6.51067
-6.04513
-5.58748
-5.13462
-4.68466
-4.23646
-3.78931
-3.34281
-2.89669
-2.45081
-2.00506
-1.55938
-1.11373
-0.668121
-0.222587
-35.9985
-28.0774
-24.5935
-22.8776
-21.8687
-21.1446
-20.5292
-19.941
-19.3348
-18.6805
-17.9576
-17.1571
-16.2835
-15.3534
-14.3883
-13.4108
-12.4443
-11.5133
-10.6428
-9.85197
-9.14708
-8.52071
-7.95732
-7.43941
-6.95168
-6.48267
-6.02464
-5.57277
-5.12421
-4.67738
-4.2314
-3.78583
-3.34042
-2.89507
-2.44972
-2.00433
-1.55891
-1.11345
-0.667979
-0.222559
-36.641
-28.3799
-24.75
-22.9692
-21.9313
-21.1957
-20.5782
-19.9926
-19.3906
-18.7392
-18.0155
-17.2088
-16.324
-15.3789
-14.3964
-13.4007
-12.4165
-11.4698
-10.5877
-9.79133
-9.087
-8.46602
-7.91076
-7.40182
-6.92256
-6.46081
-6.00862
-5.56124
-5.11602
-4.67162
-4.22738
-3.78304
-3.33849
-2.89374
-2.44881
-2.00372
-1.55851
-1.11321
-0.667858
-0.222534
-36.9659
-28.5347
-24.8315
-23.018
-21.9655
-21.2243
-20.6058
-20.0216
-19.422
-18.7721
-18.0477
-17.2375
-16.3461
-15.3923
-14.4
-13.3938
-12.3995
-11.4442
-10.5558
-9.75645
-9.05261
-8.43477
-7.88417
-7.38032
-6.90586
-6.44822
-5.99933
-5.55449
-5.11117
-4.66816
-4.22493
-3.7813
-3.33727
-2.89288
-2.44821
-2.0033
-1.55823
-1.11303
-0.667772
-0.222516
-24.8448
-24.1419
-23.281
-22.4746
-21.7454
-21.0684
-20.4147
-19.7612
-19.0903
-18.3894
-17.651
-16.8723
-16.0562
-15.2103
-14.3458
-13.4762
-12.616
-11.7793
-10.9783
-10.2221
-9.51513
-8.85755
-8.24559
-7.67319
-7.13332
-6.6191
-6.12442
-5.64423
-5.17457
-4.7124
-4.2555
-3.80226
-3.35154
-2.90253
-2.45467
-2.00757
-1.56097
-1.11469
-0.668633
-0.222756
-25.1751
-24.2159
-23.2425
-22.4082
-21.682
-21.0156
-20.3724
-19.727
-19.062
-18.3656
-17.631
-16.8562
-16.0443
-15.2029
-14.3431
-13.4781
-12.6221
-11.789
-10.9906
-10.2359
-9.52934
-8.87112
-8.25781
-7.68366
-7.14194
-6.62597
-6.12976
-5.6483
-5.17762
-4.71465
-4.25715
-3.80346
-3.3524
-2.90314
-2.4551
-2.00788
-1.56118
-1.11484
-0.668735
-0.222784
-25.867
-24.5476
-23.3557
-22.4246
-21.6643
-20.9912
-20.3515
-19.7127
-19.0543
-18.3633
-17.6322
-16.8592
-16.0474
-15.2048
-14.3429
-13.4753
-12.6167
-11.7811
-10.9809
-10.2254
-9.51906
-8.86189
-8.25009
-7.67759
-7.1374
-6.62272
-6.12752
-5.64682
-5.17667
-4.71407
-4.25681
-3.80327
-3.35231
-2.90311
-2.4551
-2.00789
-1.56121
-1.11487
-0.668751
-0.222771
-26.7067
-25.0163
-23.5732
-22.5133
-21.696
-21.0021
-20.3586
-19.7231
-19.07
-18.3836
-17.6548
-16.8809
-16.065
-15.2159
-14.3459
-13.4693
-12.6017
-11.7581
-10.9521
-10.1936
-9.48729
-8.83261
-8.22482
-7.65692
-7.12122
-6.61049
-6.11855
-5.64039
-5.17215
-4.71095
-4.25468
-3.80184
-3.35136
-2.90249
-2.4547
-2.00764
-1.56106
-1.11478
-0.668705
-0.222751
-27.5646
-25.533
-23.8454
-22.6503
-21.7669
-21.0446
-20.3922
-19.7571
-19.108
-18.4252
-17.6972
-16.9197
-16.0961
-15.2357
-14.3521
-13.461
-12.5791
-11.7228
-10.9073
-10.1438
-9.43747
-8.78659
-8.18498
-7.62419
-7.09545
-6.59089
-6.10404
-5.62989
-5.16469
-4.70573
-4.25108
-3.79938
-3.34969
-2.90137
-2.45396
-2.00716
-1.56075
-1.1146
-0.668615
-0.222732
-28.362
-26.0355
-24.1301
-22.8092
-21.8606
-21.1082
-20.445
-19.8089
-19.1628
-18.4829
-17.7545
-16.9716
-16.1371
-15.2619
-14.361
-13.4514
-12.5512
-11.6787
-10.851
-10.0814
-9.37495
-8.72891
-8.13512
-7.58324
-7.06319
-6.56631
-6.08581
-5.61665
-5.15525
-4.69909
-4.24646
-3.7962
-3.34753
-2.89991
-2.45299
-2.00652
-1.56034
-1.11436
-0.668494
-0.222713
-29.0479
-26.4807
-24.3941
-22.9659
-21.96
-21.1801
-20.5065
-19.8692
-19.2258
-18.5483
-17.8188
-17.0294
-16.1828
-15.2912
-14.3713
-13.4415
-12.5215
-11.6311
-10.79
-10.0137
-9.30732
-8.66671
-8.08147
-7.53928
-7.02859
-6.53995
-6.06624
-5.60242
-5.14507
-4.69191
-4.24145
-3.79274
-3.34515
-2.89829
-2.4519
-2.00579
-1.55988
-1.11408
-0.668357
-0.222695
-29.588
-26.8382
-24.6128
-23.101
-22.0496
-21.2476
-20.5655
-19.9273
-19.2863
-18.6109
-17.8803
-17.0845
-16.2261
-15.3189
-14.381
-13.4323
-12.4936
-11.5864
-10.7327
-9.95005
-9.24393
-8.60852
-8.03139
-7.49831
-6.99638
-6.51542
-6.04801
-5.58915
-5.13555
-4.68517
-4.23672
-3.78945
-3.34288
-2.89674
-2.45084
-2.00509
-1.55942
-1.1138
-0.668221
-0.222678
-29.9598
-27.0875
-24.7683
-23.1996
-22.117
-21.2997
-20.6118
-19.9733
-19.3341
-18.6602
-17.9285
-17.1277
-16.26
-15.3404
-14.3884
-13.4247
-12.4713
-11.551
-10.6876
-9.90007
-9.19418
-8.56292
-7.99218
-7.46624
-6.97117
-6.49619
-6.0337
-5.57869
-5.12802
-4.6798
-4.23294
-3.7868
-3.34103
-2.89545
-2.44996
-2.00449
-1.55903
-1.11356
-0.668103
-0.22266
-30.1494
-27.2157
-24.8493
-23.2519
-22.1535
-21.3285
-20.6378
-19.9991
-19.3611
-18.688
-17.9556
-17.1517
-16.2787
-15.352
-14.3917
-13.4192
-12.4574
-11.5299
-10.6612
-9.87114
-9.16554
-8.53673
-7.96967
-7.4478
-6.95662
-6.48504
-6.02535
-5.57253
-5.12353
-4.67656
-4.23061
-3.78514
-3.33985
-2.89462
-2.44937
-2.00408
-1.55875
-1.11339
-0.66802
-0.222646
-23.8537
-23.5555
-23.0044
-22.3677
-21.7188
-21.0764
-20.4367
-19.7885
-19.1195
-18.4187
-17.6785
-16.8963
-16.0749
-15.2224
-14.3505
-13.4733
-12.6057
-11.7626
-10.957
-10.1984
-9.49141
-8.83571
-8.22681
-7.65791
-7.12145
-6.6102
-6.11794
-5.63962
-5.17135
-4.71019
-4.254
-3.80126
-3.35088
-2.90209
-2.45438
-2.00739
-1.56085
-1.11462
-0.668583
-0.222715
-23.8806
-23.5338
-22.9386
-22.2882
-21.6427
-21.0096
-20.3793
-19.7387
-19.0753
-18.3792
-17.6438
-16.8675
-16.0533
-15.209
-14.346
-13.4776
-12.6183
-11.7823
-10.9819
-10.2262
-9.51967
-8.86236
-8.25045
-7.67786
-7.1376
-6.62287
-6.12763
-5.64689
-5.17671
-4.7141
-4.25683
-3.80328
-3.35232
-2.90311
-2.4551
-2.00789
-1.5612
-1.11486
-0.668747
-0.222769
-24.1133
-23.6859
-23.0002
-22.2947
-21.6243
-20.9836
-20.3541
-19.7176
-19.0591
-18.3675
-17.6359
-16.8623
-16.0501
-15.2072
-14.345
-13.4771
-12.6181
-11.7819
-10.9814
-10.2258
-9.51974
-8.86299
-8.25158
-7.67931
-7.13917
-6.62441
-6.12903
-5.64811
-5.17774
-4.71494
-4.2575
-3.80381
-3.35272
-2.90342
-2.45534
-2.00807
-1.56134
-1.11496
-0.66881
-0.222772
-24.4842
-23.9525
-23.152
-22.3687
-21.6557
-20.9959
-20.3606
-19.7251
-19.0703
-18.3826
-17.6533
-16.8795
-16.0644
-15.2165
-14.3481
-13.4733
-12.6071
-11.7643
-10.9587
-10.2007
-9.49494
-8.84058
-8.23268
-7.66421
-7.12761
-6.61585
-6.12288
-5.64379
-5.17477
-4.71293
-4.25616
-3.80294
-3.35216
-2.90307
-2.45512
-2.00795
-1.56127
-1.11494
-0.668801
-0.222767
-24.919
-24.2771
-23.3565
-22.4876
-21.7242
-21.0391
-20.3942
-19.7577
-19.1059
-18.4216
-17.6934
-16.9166
-16.0942
-15.2359
-14.3552
-13.4672
-12.5876
-11.7325
-10.9175
-10.1548
-9.44932
-8.79903
-8.19726
-7.63551
-7.10528
-6.59902
-6.11052
-5.6349
-5.16848
-4.70855
-4.25315
-3.80089
-3.35078
-2.90216
-2.45452
-2.00756
-1.56104
-1.1148
-0.668738
-0.222762
-25.358
-24.6126
-23.5792
-22.6279
-21.8142
-21.1025
-20.4467
-19.8086
-19.1597
-18.4787
-17.7509
-16.9691
-16.1357
-15.2629
-14.3655
-13.4598
-12.5623
-11.6904
-10.8624
-10.0934
-9.38861
-8.74391
-8.15034
-7.59748
-7.07561
-6.57657
-6.09393
-5.62289
-5.15992
-4.70254
-4.24897
-3.79802
-3.34883
-2.90083
-2.45364
-2.00698
-1.56067
-1.11458
-0.668637
-0.222759
-25.7562
-24.9218
-23.7915
-22.7681
-21.9093
-21.1736
-20.5077
-19.8683
-19.2225
-18.5449
-17.8173
-17.0295
-16.1833
-15.2936
-14.3776
-13.4521
-12.5348
-11.6438
-10.8007
-10.0247
-9.3209
-8.68278
-8.09853
-7.5556
-7.04298
-6.55186
-6.07565
-5.60961
-5.15043
-4.69583
-4.24429
-3.79477
-3.3466
-2.89932
-2.45262
-2.0063
-1.56023
-1.11432
-0.668516
-0.222756
-26.0805
-25.1766
-23.9703
-22.89
-21.9952
-21.2399
-20.566
-19.9261
-19.2833
-18.6092
-17.8818
-17.088
-16.2291
-15.3234
-14.3894
-13.4451
-12.5088
-11.5994
-10.7416
-9.95896
-9.2564
-8.62479
-8.04954
-7.51609
-7.01222
-6.52857
-6.0584
-5.59706
-5.14142
-4.68945
-4.23981
-3.79165
-3.34444
-2.89783
-2.45161
-2.00562
-1.55979
-1.11406
-0.668392
-0.222751
-26.3085
-25.3572
-24.0991
-22.9795
-22.0597
-21.291
-20.6118
-19.9717
-19.3315
-18.66
-17.9327
-17.1342
-16.2654
-15.347
-14.3988
-13.4394
-12.4879
-11.5642
-10.6951
-9.90728
-9.20563
-8.57911
-8.01096
-7.48498
-6.98799
-6.5102
-6.04476
-5.5871
-5.13425
-4.68433
-4.23618
-3.7891
-3.34266
-2.8966
-2.45075
-2.00504
-1.55941
-1.11383
-0.668282
-0.222743
-26.4263
-25.451
-24.1666
-23.0271
-22.0947
-21.3192
-20.6374
-19.9975
-19.3587
-18.6887
-17.9614
-17.1602
-16.2859
-15.3602
-14.4035
-13.4349
-12.4744
-11.5429
-10.6679
-9.87738
-9.17638
-8.55282
-7.98874
-7.46702
-6.97395
-6.49949
-6.03675
-5.5812
-5.12994
-4.68121
-4.23394
-3.7875
-3.34151
-2.89578
-2.45017
-2.00464
-1.55914
-1.11367
-0.668201
-0.222734
-23.1214
-22.9907
-22.6472
-22.1695
-21.6224
-21.0404
-20.4361
-19.809
-19.1527
-18.4587
-17.72
-16.9345
-16.1056
-15.2423
-14.3578
-13.4671
-12.5865
-11.732
-10.9179
-10.155
-9.44802
-8.79574
-8.19241
-7.6299
-7.09963
-6.59381
-6.10598
-5.6311
-5.16538
-4.70607
-4.25121
-3.79938
-3.34963
-2.90127
-2.45385
-2.00705
-1.56064
-1.11449
-0.668506
-0.222678
-23.0509
-22.9261
-22.5628
-22.077
-21.5334
-20.9598
-20.3642
-19.7442
-19.0933
-18.4041
-17.6713
-16.8936
-16.0747
-15.2232
-14.3515
-13.4737
-12.6052
-11.7611
-10.9546
-10.1957
-9.48906
-8.8341
-8.22605
-7.65792
-7.12202
-6.61112
-6.11904
-5.64076
-5.17243
-4.71117
-4.25485
-3.80197
-3.35145
-2.90255
-2.45475
-2.00767
-1.56108
-1.11479
-0.668709
-0.222751
-23.0846
-22.9673
-22.5738
-22.0613
-21.5033
-20.9254
-20.3312
-19.7152
-19.0692
-18.3849
-17.6566
-16.8829
-16.0673
-15.2191
-14.3503
-13.4752
-12.6088
-11.7658
-10.9601
-10.202
-9.49607
-8.84157
-8.23353
-7.66492
-7.1282
-6.61633
-6.12327
-5.6441
-5.17501
-4.71312
-4.25631
-3.80305
-3.35225
-2.90314
-2.45517
-2.00798
-1.5613
-1.11495
-0.668809
-0.222768
-23.2301
-23.0973
-22.6588
-22.1061
-21.5222
-20.9316
-20.3338
-19.7198
-19.0785
-18.3992
-17.6744
-16.901
-16.0826
-15.2295
-14.3549
-13.4732
-12.5995
-11.7493
-10.9378
-10.1771
-9.47215
-8.8209
-8.21702
-7.6525
-7.11925
-6.61011
-6.11906
-5.64132
-5.17322
-4.71199
-4.25562
-3.80264
-3.35202
-2.90302
-2.45512
-2.00797
-1.56131
-1.11497
-0.668831
-0.222777
-23.4523
-23.2862
-22.7934
-22.1932
-21.5774
-20.9696
-20.3659
-19.7533
-19.1171
-18.4436
-17.7217
-16.9455
-16.1184
-15.2532
-14.365
-13.4688
-12.58
-11.7145
-10.8908
-10.1247
-9.42124
-8.7761
-8.18025
-7.62378
-7.09766
-6.59432
-6.10776
-5.63338
-5.16772
-4.70823
-4.25307
-3.80094
-3.35089
-2.90228
-2.45465
-2.00767
-1.56113
-1.11488
-0.668795
-0.222787
-23.7079
-23.5007
-22.9517
-22.3031
-21.6544
-21.0285
-20.4184
-19.8076
-19.1779
-18.5116
-17.7931
-17.0119
-16.1705
-15.2872
-14.3796
-13.4631
-12.5532
-11.6657
-10.8236
-10.0499
-9.34926
-8.7132
-8.12876
-7.58352
-7.06721
-6.57187
-6.09154
-5.62184
-5.15962
-4.70261
-4.24921
-3.79831
-3.34912
-2.90109
-2.45386
-2.00716
-1.56081
-1.11469
-0.668717
-0.222799
-23.9577
-23.7101
-23.1095
-22.417
-21.7382
-21.0958
-20.4804
-19.8725
-19.2505
-18.593
-17.879
-17.0918
-16.2317
-15.3267
-14.3968
-13.4572
-12.5235
-11.6095
-10.7441
-9.96183
-9.2657
-8.64109
-8.07023
-7.53797
-7.03282
-6.54649
-6.07314
-5.6087
-5.15034
-4.69613
-4.24472
-3.79522
-3.34701
-2.89966
-2.4529
-2.00652
-1.56041
-1.11446
-0.668614
-0.22281
-24.1708
-23.8891
-23.2464
-22.5182
-21.815
-21.1595
-20.5403
-19.9358
-19.3218
-18.6734
-17.9644
-17.1716
-16.2917
-15.3656
-14.4142
-13.4522
-12.4959
-11.5554
-10.6657
-9.87535
-9.18435
-8.57145
-8.01405
-7.49441
-6.99998
-6.52225
-6.05555
-5.59609
-5.14141
-4.68985
-4.24035
-3.79219
-3.34492
-2.89823
-2.45193
-2.00588
-1.55999
-1.11421
-0.668502
-0.222817
-24.3247
-24.019
-23.3468
-22.5936
-21.8733
-21.2088
-20.5874
-19.986
-19.3784
-18.737
-18.0314
-17.2338
-16.3399
-15.3977
-14.4292
-13.4487
-12.4735
-11.5131
-10.6056
-9.80832
-9.12058
-8.51652
-7.96961
-7.45991
-6.97395
-6.50301
-6.04154
-5.58602
-5.13424
-4.68478
-4.23678
-3.7897
-3.34319
-2.89703
-2.4511
-2.00531
-1.55963
-1.114
-0.6684
-0.222817
-24.4055
-24.0874
-23.4001
-22.6341
-21.9052
-21.2362
-20.614
-20.0145
-19.4105
-18.773
-18.0693
-17.2693
-16.3681
-15.4168
-14.4377
-13.4453
-12.4579
-11.4872
-10.571
-9.7702
-9.08423
-8.48506
-7.94406
-7.44
-6.95885
-6.49178
-6.0333
-5.58004
-5.12991
-4.68168
-4.23457
-3.78812
-3.34206
-2.89623
-2.45053
-2.00492
-1.55936
-1.11383
-0.668322
-0.222812
-22.596
-22.5286
-22.3055
-21.9462
-21.4922
-20.9767
-20.4183
-19.823
-19.1881
-18.5069
-17.7731
-16.9848
-16.1464
-15.2689
-14.3671
-13.4579
-12.559
-11.6884
-10.8625
-10.0935
-9.3866
-8.7393
-8.14395
-7.59052
-7.06901
-6.57083
-6.08921
-5.61914
-5.15701
-4.7003
-4.24727
-3.79673
-3.34786
-2.90011
-2.4531
-2.00656
-1.56034
-1.11431
-0.668411
-0.222648
-22.5015
-22.4511
-22.2149
-21.8478
-21.3952
-20.8861
-20.3348
-19.745
-19.1143
-18.4375
-17.7102
-16.9314
-16.106
-15.244
-14.3591
-13.467
-12.5843
-11.7275
-10.9115
-10.1477
-9.44092
-8.7896
-8.18755
-7.62634
-7.09721
-6.59232
-6.10518
-5.63079
-5.1654
-4.70629
-4.25151
-3.79972
-3.34996
-2.90157
-2.45411
-2.00727
-1.56083
-1.11465
-0.668638
-0.222737
-22.4543
-22.4353
-22.1928
-21.8134
-21.3535
-20.843
-20.2942
-19.709
-19.084
-18.4131
-17.6915
-16.9178
-16.0966
-15.2389
-14.3584
-13.4705
-12.5909
-11.7357
-10.9206
-10.1577
-9.45207
-8.8015
-8.19941
-7.63735
-7.10682
-6.60029
-6.11155
-5.63572
-5.16914
-4.70907
-4.25357
-3.80122
-3.35104
-2.90235
-2.45467
-2.00767
-1.56111
-1.11485
-0.668765
-0.222769
-22.4956
-22.4874
-22.2303
-21.832
-21.3583
-20.8415
-20.2928
-19.7125
-19.0949
-18.4318
-17.7157
-16.9429
-16.1176
-15.2534
-14.3658
-13.47
-12.5815
-11.7162
-10.8925
-10.1264
-9.42286
-8.77757
-8.18155
-7.62491
-7.09861
-6.5951
-6.1084
-5.6339
-5.16814
-4.70856
-4.25334
-3.80115
-3.35106
-2.90241
-2.45475
-2.00775
-1.56119
-1.11491
-0.668815
-0.222793
-22.6132
-22.5947
-22.3132
-21.8901
-21.3988
-20.8732
-20.3242
-19.75
-19.1426
-18.4905
-17.7813
-17.0057
-16.167
-15.286
-14.381
-13.4671
-12.5589
-11.6715
-10.8286
-10.0554
-9.35623
-8.72152
-8.13772
-7.59229
-7.07516
-6.57867
-6.0971
-5.62623
-5.163
-4.70515
-4.2511
-3.79969
-3.35012
-2.90182
-2.45438
-2.00752
-1.56106
-1.11485
-0.668803
-0.222818
-22.7762
-22.7343
-22.4226
-21.9722
-21.4619
-20.9273
-20.3786
-19.8129
-19.2196
-18.5834
-17.8844
-17.1038
-16.2405
-15.3331
-14.4026
-13.4626
-12.5272
-11.6057
-10.7308
-9.94784
-9.25731
-8.6396
-8.07407
-7.54483
-7.04076
-6.55423
-6.08
-5.61441
-5.1549
-4.69965
-4.24739
-3.79721
-3.34847
-2.90072
-2.45366
-2.00706
-1.56078
-1.1147
-0.668746
-0.222844
-22.9505
-22.8809
-22.5388
-22.062
-21.5339
-20.9913
-20.4445
-19.8894
-19.3138
-18.6985
-18.0153
-17.2297
-16.3286
-15.388
-14.4279
-13.4578
-12.493
-11.5274
-10.6058
-9.81296
-9.13722
-8.54265
-7.99996
-7.49004
-7.00115
-6.52605
-6.06019
-5.60062
-5.14538
-4.69312
-4.24294
-3.79419
-3.34643
-2.89935
-2.45275
-2.00647
-1.56041
-1.11449
-0.668659
-0.222867
-23.1066
-23.0119
-22.6433
-22.1444
-21.6016
-21.0531
-20.509
-19.9649
-19.4076
-18.8149
-18.1507
-17.3625
-16.4153
-15.4426
-14.4546
-13.4539
-12.464
-11.452
-10.4749
-9.67488
-9.0172
-8.44734
-7.92785
-7.43705
-6.96294
-6.49887
-6.04105
-5.58725
-5.1361
-4.68672
-4.23854
-3.79118
-3.34438
-2.89796
-2.45181
-2.00585
-1.56001
-1.11426
-0.66856
-0.222884
-23.2227
-23.1095
-22.7218
-22.207
-21.6539
-21.1016
-20.5602
-20.025
-19.4818
-18.9054
-18.2527
-17.4592
-16.4854
-15.4902
-14.4801
-13.454
-12.4398
-11.3954
-10.3834
-9.5731
-8.92511
-8.37268
-7.87085
-7.395
-6.93256
-6.4772
-6.02574
-5.57651
-5.1286
-4.68151
-4.23493
-3.78868
-3.34265
-2.89677
-2.451
-2.0053
-1.55965
-1.11405
-0.668464
-0.222891
-23.2847
-23.1617
-22.764
-22.2411
-21.6828
-21.1287
-20.5892
-20.0592
-19.5238
-18.9564
-18.3097
-17.5139
-16.528
-15.521
-14.4971
-13.4536
-12.4206
-11.3619
-10.3338
-9.51762
-8.8739
-8.33051
-7.83833
-7.37083
-6.91498
-6.46458
-6.01675
-5.57013
-5.12408
-4.67831
-4.23267
-3.78709
-3.34153
-2.89597
-2.45043
-2.00491
-1.55939
-1.11389
-0.668388
-0.222889
-22.225
-22.1782
-22.0206
-21.7408
-21.3604
-20.9053
-20.3941
-19.8346
-19.2257
-18.5611
-17.8344
-17.0436
-16.1944
-15.3001
-14.3778
-13.4463
-12.5255
-11.6353
-10.795
-10.0187
-9.31199
-8.67096
-8.08547
-7.54314
-7.03226
-6.5433
-6.06915
-5.60484
-5.14699
-4.69339
-4.24256
-3.79356
-3.34575
-2.89871
-2.45219
-2.00598
-1.55998
-1.1141
-0.668306
-0.222625
-22.1309
-22.0999
-21.9299
-21.6409
-21.2594
-20.808
-20.3011
-19.7447
-19.1381
-18.4769
-17.7569
-16.9774
-16.1441
-15.2691
-14.3681
-13.4584
-12.558
-11.6853
-10.8574
-10.0874
-9.38054
-8.73391
-8.13946
-7.58693
-7.06626
-6.56882
-6.08784
-5.61828
-5.15655
-4.70012
-4.24727
-3.79684
-3.34803
-2.90029
-2.45328
-2.00673
-1.5605
-1.11446
-0.668547
-0.222727
-22.055
-22.0583
-21.8897
-21.5945
-21.2091
-20.758
-20.2546
-19.7036
-19.1037
-18.4498
-17.737
-16.9634
-16.1346
-15.2644
-14.3686
-13.4639
-12.567
-11.6955
-10.8676
-10.0986
-9.39346
-8.74833
-8.15424
-7.60084
-7.07844
-6.57891
-6.09584
-5.62443
-5.16117
-4.70353
-4.24977
-3.79865
-3.34932
-2.90122
-2.45394
-2.0072
-1.56083
-1.11469
-0.668695
-0.222775
-22.0509
-22.0701
-21.8984
-21.5947
-21.203
-20.7505
-20.2511
-19.7085
-19.12
-18.4782
-17.7742
-17.0017
-16.1656
-15.2856
-14.3801
-13.465
-12.556
-11.6691
-10.8273
-10.0537
-9.35302
-8.71666
-8.13183
-7.58618
-7.06945
-6.57373
-6.09306
-5.62308
-5.16062
-4.70341
-4.24986
-3.79882
-3.34952
-2.90141
-2.45411
-2.00734
-1.56095
-1.11479
-0.668767
-0.222814
-22.1193
-22.1324
-21.9484
-21.6319
-21.2318
-20.7777
-20.2839
-19.754
-19.1834
-18.5613
-17.8711
-17.096
-16.2362
-15.3311
-14.4021
-13.4632
-12.5284
-11.6074
-10.7329
-9.95008
-9.25952
-8.64165
-8.07588
-7.54639
-7.04207
-6.55532
-6.08088
-5.61513
-5.15548
-4.70012
-4.24777
-3.79751
-3.34871
-2.90091
-2.45381
-2.00717
-1.56086
-1.11476
-0.668776
-0.222853
-22.237
-22.2293
-22.026
-21.6937
-21.2843
-20.8291
-20.3435
-19.8311
-19.2869
-18.6962
-18.0312
-17.2526
-16.342
-15.3956
-14.4324
-13.4587
-12.4908
-11.5132
-10.5755
-9.78226
-9.11449
-8.5288
-7.99295
-7.48748
-7.00114
-6.52731
-6.06193
-5.60241
-5.147
-4.6945
-4.24406
-3.79508
-3.34712