# vtk DataFile Version 2.0
I need something to put here
ASCII

DATASET STRUCTURED_GRID
DIMENSIONS 41 11 21
POINTS 9471 float
0.000000 0.000000 0.000000
0.100000 0.000000 0.000000
0.200000 0.000000 0.000000
0.300000 0.000000 0.000000
0.400000 0.000000 0.000000
0.500000 0.000000 0.000000
0.600000 0.000000 0.000000
0.700000 0.000000 0.000000
0.800000 0.000000 0.000000
0.900000 0.000000 0.000000
1.000000 0.000000 0.000000
1.100000 0.000000 0.000000
1.200000 0.000000 0.000000
1.300000 0.000000 0.000000
1.400000 0.000000 0.000000
1.500000 0.000000 0.000000
1.600000 0.000000 0.000000
1.700000 0.000000 0.000000
1.800000 0.000000 0.000000
1.900000 0.000000 0.000000
2.000000 0.000000 0.000000
2.100000 0.000000 0.000000
2.200000 0.000000 0.000000
2.300000 0.000000 0.000000
2.400000 0.000000 0.000000
2.500000 0.000000 0.000000
2.600000 0.000000 0.000000
2.700000 0.000000 0.000000
2.800000 0.000000 0.000000
2.900000 0.000000 0.000000
3.000000 0.000000 0.000000
3.100000 0.000000 0.000000
3.200000 0.000000 0.000000
3.300000 0.000000 0.000000
3.400000 0.000000 0.000000
3.500000 0.000000 0.000000
3.600000 0.000000 0.000000
3.700000 0.000000 0.000000
3.800000 0.000000 0.000000
3.900000 0.000000 0.000000
4.000000 0.000000 0.000000
0.000000 0.100000 0.000000
0.100000 0.100000 0.000000
0.200000 0.100000 0.000000
0.300000 0.100000 0.000000
0.400000 0.100000 0.000000
0.500000 0.100000 0.000000
0.600000 0.100000 0.000000
0.700000 0.100000 0.000000
0.800000 0.100000 0.000000
0.900000 0.100000 0.000000
1.000000 0.100000 0.000000
1.100000 0.100000 0.000000
1.200000 0.100000 0.000000
1.300000 0.100000 0.000000
1.400000 0.100000 0.000000
1.500000 0.100000 0.000000
1.600000 0.100000 0.000000
1.700000 0.100000 0.000000
1.800000 0.100000 0.000000
1.900000 0.100000 0.000000
2.000000 0.100000 0.000000
2.100000 0.100000 0.000000
2.200000 0.100000 0.000000
2.300000 0.100000 0.000000
2.400000 0.100000 0.000000
2.500000 0.100000 0.000000
2.600000 0.100000 0.000000
2.700000 0.100000 0.000000
2.800000 0.100000 0.000000
2.900000 0.100000 0.000000
3.000000 0.100000 0.000000
3.100000 0.100000 0.000000
3.200000 0.100000 0.000000
3.300000 0.100000 0.000000
3.400000 0.100000 0.000000
3.500000 0.100000 0.000000
3.600000 0.100000 0.000000
3.700000 0.100000 0.000000
3.800000 0.100000 0.000000
3.900000 0.100000 0.000000
4.000000 0.100000 0.000000
0.000000 0.200000 0.000000
0.100000 0.200000 0.000000
0.200000 0.200000 0.000000
0.300000 0.200000 0.000000
0.400000 0.200000 0.000000
0.500000 0.200000 0.000000
0.600000 0.200000 0.000000
0.700000 0.200000 0.000000
0.800000 0.200000 0.000000
0.900000 0.200000 0.000000
1.000000 0.200000 0.000000
1.100000 0.200000 0.000000
1.200000 0.200000 0.000000
1.300000 0.200000 0.000000
1.400000 0.200000 0.000000
1.500000 0.200000 0.000000
1.600000 0.200000 0.000000
1.700000 0.200000 0.000000
1.800000 0.200000 0.000000
1.900000 0.200000 0.000000
2.000000 0.200000 0.000000
2.100000 0.200000 0.000000
2.200000 0.200000 0.000000
2.300000 0.200000 0.000000
2.400000 0.200000 0.000000
2.500000 0.200000 0.000000
2.600000 0.200000 0.000000
2.700000 0.200000 0.000000
2.800000 0.200000 0.000000
2.900000 0.200000 0.000000
3.000000 0.200000 0.000000
3.100000 0.200000 0.000000
3.200000 0.200000 0.000000
3.300000 0.200000 0.000000
3.400000 0.200000 0.000000
3.500000 0.200000 0.000000
3.600000 0.200000 0.000000
3.700000 0.200000 0.000000
3.800000 0.200000 0.000000
3.900000 0.200000 0.000000
4.000000 0.200000 0.000000
0.000000 0.300000 0.000000
0.100000 0.300000 0.000000
0.200000 0.300000 0.000000
0.300000 0.300000 0.000000
0.400000 0.300000 0.000000
0.500000 0.300000 0.000000
0.600000 0.300000 0.000000
0.700000 0.300000 0.000000
0.800000 0.300000 0.000000
0.900000 0.300000 0.000000
1.000000 0.300000 0.000000
1.100000 0.300000 0.000000
1.200000 0.300000 0.000000
1.300000 0.300000 0.000000
1.400000 0.300000 0.000000
1.500000 0.300000 0.000000
1.600000 0.300000 0.000000
1.700000 0.300000 0.000000
1.800000 0.300000 0.000000
1.900000 0.300000 0.000000
2.000000 0.300000 0.000000
2.100000 0.300000 0.000000
2.200000 0.300000 0.000000
2.300000 0.300000 0.000000
2.400000 0.300000 0.000000
2.500000 0.300000 0.000000
2.600000 0.300000 0.000000
2.700000 0.300000 0.000000
2.800000 0.300000 0.000000
2.900000 0.300000 0.000000
3.000000 0.300000 0.000000
3.100000 0.300000 0.000000
3.200000 0.300000 0.000000
3.300000 0.300000 0.000000
3.400000 0.300000 0.000000
3.500000 0.300000 0.000000
3.600000 0.300000 0.000000
3.700000 0.300000 0.000000
3.800000 0.300000 0.000000
3.900000 0.300000 0.000000
4.000000 0.300000 0.000000
0.000000 0.400000 0.000000
0.100000 0.400000 0.000000
0.200000 0.400000 0.000000
0.300000 0.400000 0.000000
0.400000 0.400000 0.000000
0.500000 0.400000 0.000000
0.600000 0.400000 0.000000
0.700000 0.400000 0.000000
0.800000 0.400000 0.000000
0.900000 0.400000 0.000000
1.000000 0.400000 0.000000
1.100000 0.400000 0.000000
1.200000 0.400000 0.000000
1.300000 0.400000 0.000000
1.400000 0.400000 0.000000
1.500000 0.400000 0.000000
1.600000 0.400000 0.000000
1.700000 0.400000 0.000000
1.800000 0.400000 0.000000
1.900000 0.400000 0.000000
2.000000 0.400000 0.000000
2.100000 0.400000 0.000000
2.200000 0.400000 0.000000
2.300000 0.400000 0.000000
2.400000 0.400000 0.000000
2.500000 0.400000 0.000000
2.600000 0.400000 0.000000
2.700000 0.400000 0.000000
2.800000 0.400000 0.000000
2.900000 0.400000 0.000000
3.000000 0.400000 0.000000
3.100000 0.400000 0.000000
3.200000 0.400000 0.000000
3.300000 0.400000 0.000000
3.400000 0.400000 0.000000
3.500000 0.400000 0.000000
3.600000 0.400000 0.000000
3.700000 0.400000 0.000000
3.800000 0.400000 0.000000
3.900000 0.400000 0.000000
4.000000 0.400000 0.000000
0.000000 0.500000 0.000000
0.100000 0.500000 0.000000
0.200000 0.500000 0.000000
0.300000 0.500000 0.000000
0.400000 0.500000 0.000000
0.500000 0.500000 0.000000
0.600000 0.500000 0.000000
0.700000 0.500000 0.000000
0.800000 0.500000 0.000000
0.900000 0.500000 0.000000
1.000000 0.500000 0.000000
1.100000 0.500000 0.000000
1.200000 0.500000 0.000000
1.300000 0.500000 0.000000
1.400000 0.500000 0.000000
1.500000 0.500000 0.000000
1.600000 0.500000 0.000000
1.700000 0.500000 0.000000
1.800000 0.500000 0.000000
1.900000 0.500000 0.000000
2.000000 0.500000 0.000000
2.100000 0.500000 0.000000
2.200000 0.500000 0.000000
2.300000 0.500000 0.000000
2.400000 0.500000 0.000000
2.500000 0.500000 0.000000
2.600000 0.500000 0.000000
2.700000 0.500000 0.000000
2.800000 0.500000 0.000000
2.900000 0.500000 0.000000
3.000000 0.500000 0.000000
3.100000 0.500000 0.000000
3.200000 0.500000 0.000000
3.300000 0.500000 0.000000
3.400000 0.500000 0.000000
3.500000 0.500000 0.000000
3.600000 0.500000 0.000000
3.700000 0.500000 0.000000
3.800000 0.500000 0.000000
3.900000 0.500000 0.000000
4.000000 0.500000 0.000000
0.000000 0.600000 0.000000
0.100000 0.600000 0.000000
0.200000 0.600000 0.000000
0.300000 0.600000 0.000000
0.400000 0.600000 0.000000
0.500000 0.600000 0.000000
0.600000 0.600000 0.000000
0.700000 0.600000 0.000000
0.800000 0.600000 0.000000
0.900000 0.600000 0.000000
1.000000 0.600000 0.000000
1.100000 0.600000 0.000000
1.200000 0.600000 0.000000
1.300000 0.600000 0.000000
1.400000 0.600000 0.000000
1.500000 0.600000 0.000000
1.600000 0.600000 0.000000
1.700000 0.600000 0.000000
1.800000 0.600000 0.000000
1.900000 0.600000 0.000000
2.000000 0.600000 0.000000
2.100000 0.600000 0.000000
2.200000 0.600000 0.000000
2.300000 0.600000 0.000000
2.400000 0.600000 0.000000
2.500000 0.600000 0.000000
2.600000 0.600000 0.000000
2.700000 0.600000 0.000000
2.800000 0.600000 0.000000
2.900000 0.600000 0.000000
3.000000 0.600000 0.000000
3.100000 0.600000 0.000000
3.200000 0.600000 0.000000
3.300000 0.600000 0.000000
3.400000 0.600000 0.000000
3.500000 0.600000 0.000000
3.600000 0.600000 0.000000
3.700000 0.600000 0.000000
3.800000 0.600000 0.000000
3.900000 0.600000 0.000000
4.000000 0.600000 0.000000
0.000000 0.700000 0.000000
0.100000 0.700000 0.000000
0.200000 0.700000 0.000000
0.300000 0.700000 0.000000
0.400000 0.700000 0.000000
0.500000 0.700000 0.000000
0.600000 0.700000 0.000000
0.700000 0.700000 0.000000
0.800000 0.700000 0.000000
0.900000 0.700000 0.000000
1.000000 0.700000 0.000000
1.100000 0.700000 0.000000
1.200000 0.700000 0.000000
1.300000 0.700000 0.000000
1.400000 0.700000 0.000000
1.500000 0.700000 0.000000
1.600000 0.700000 0.000000
1.700000 0.700000 0.000000
1.800000 0.700000 0.000000
1.900000 0.700000 0.000000
2.000000 0.700000 0.000000
2.100000 0.700000 0.000000
2.200000 0.700000 0.000000
2.300000 0.700000 0.000000
2.400000 0.700000 0.000000
2.500000 0.700000 0.000000
2.600000 0.700000 0.000000
2.700000 0.700000 0.000000
2.800000 0.700000 0.000000
2.900000 0.700000 0.000000
3.000000 0.700000 0.000000
3.100000 0.700000 0.000000
3.200000 0.700000 0.000000
3.300000 0.700000 0.000000
3.400000 0.700000 0.000000
3.500000 0.700000 0.000000
3.600000 0.700000 0.000000
3.700000 0.700000 0.000000
3.800000 0.700000 0.000000
3.900000 0.700000 0.000000
4.000000 0.700000 0.000000
0.000000 0.800000 0.000000
0.100000 0.800000 0.000000
0.200000 0.800000 0.000000
0.300000 0.800000 0.000000
0.400000 0.800000 0.000000
0.500000 0.800000 0.000000
0.600000 0.800000 0.000000
0.700000 0.800000 0.000000
0.800000 0.800000 0.000000
0.900000 0.800000 0.000000
1.000000 0.800000 0.000000
1.100000 0.800000 0.000000
1.200000 0.800000 0.000000
1.300000 0.800000 0.000000
1.400000 0.800000 0.000000
1.500000 0.800000 0.000000
1.600000 0.800000 0.000000
1.700000 0.800000 0.000000
1.800000 0.800000 0.000000
1.900000 0.800000 0.000000
2.000000 0.800000 0.000000
2.100000 0.800000 0.000000
2.200000 0.800000 0.000000
2.300000 0.800000 0.000000
2.400000 0.800000 0.000000
2.500000 0.800000 0.000000
2.600000 0.800000 0.000000
2.700000 0.800000 0.000000
2.800000 0.800000 0.000000
2.900000 0.800000 0.000000
3.000000 0.800000 0.000000
3.100000 0.800000 0.000000
3.200000 0.800000 0.000000
3.300000 0.800000 0.000000
3.400000 0.800000 0.000000
3.500000 0.800000 0.000000
3.600000 0.800000 0.000000
[...]
CELL_DATA 8000
SCALARS pressure float 1
LOOKUP_TABLE default
-23.2154
-21.6309
-20.4548
-19.5708
-18.8579
-18.2356
-17.6539
-17.0816
-16.4979
-15.8898
-15.2496
-14.5751
-13.869
-13.1378
-12.3915
-11.6419
-10.9013
-10.1818
-9.49348
-8.8437
-8.2361
-7.67062
-7.14415
-6.65157
-6.18688
-5.74409
-5.31782
-4.90362
-4.49795
-4.09819
-3.70242
-3.30929
-2.91788
-2.52758
-2.13797
-1.7488
-1.35989
-0.971158
-0.582555
-0.194089
-24.3998
-21.8054
-20.3929
-19.4794
-18.7833
-18.1826
-17.6184
-17.0585
-16.4834
-15.881
-15.2445
-14.5723
-13.8674
-13.1368
-12.3906
-11.6407
-10.8998
-10.18
-9.49152
-8.84176
-8.23437
-7.66927
-7.14323
-6.65105
-6.18668
-5.74411
-5.31798
-4.90384
-4.49819
-4.09842
-3.70262
-3.30945
-2.91801
-2.52768
-2.13805
-1.74885
-1.35993
-0.971188
-0.582569
-0.194077
-26.0898
-22.2941
-20.479
-19.4482
-18.7306
-18.1377
-17.588
-17.0421
-16.4783
-15.8839
-15.2521
-14.5815
-13.8753
-13.1415
-12.3908
-11.6358
-10.8898
-10.1655
-9.47385
-8.82257
-8.21541
-7.65194
-7.12842
-6.63909
-6.17748
-5.73733
-5.31316
-4.90052
-4.49597
-4.09697
-3.70169
-3.30888
-2.91767
-2.52748
-2.13793
-1.74879
-1.3599
-0.971166
-0.582545
-0.194046
-27.8518
-22.9231
-20.6764
-19.4906
-18.7248
-18.1239
-17.5806
-17.0452
-16.4914
-15.9044
-15.2763
-14.6052
-13.8947
-13.1534
-12.3934
-11.6282
-10.8723
-10.1394
-9.44139
-8.78701
-8.18001
-7.61937
-7.10036
-6.61623
-6.15969
-5.72402
-5.30354
-4.89376
-4.49134
-4.09386
-3.69965
-3.30756
-2.91683
-2.52695
-2.13761
-1.7486
-1.35978
-0.971093
-0.582497
-0.194016
-29.502
-23.5776
-20.9294
-19.5848
-18.76
-18.1419
-17.5989
-17.0704
-16.5247
-15.9438
-15.3179
-14.6438
-13.9255
-13.1728
-12.3989
-11.6189
-10.8485
-10.1029
-9.39576
-8.73675
-8.12986
-7.57318
-7.06052
-6.58368
-6.13428
-5.70493
-5.28964
-4.88392
-4.48453
-4.08925
-3.69657
-3.30554
-2.91552
-2.52611
-2.13708
-1.74827
-1.35958
-0.970973
-0.58243
-0.193992
-30.9522
-24.1896
-21.1938
-19.7046
-18.8214
-18.1831
-17.6373
-17.1134
-16.5744
-15.9986
-15.3734
-14.6944
-13.9657
-13.1982
-12.4071
-11.6088
-10.8205
-10.0593
-9.3406
-8.67577
-8.06898
-7.51713
-7.01222
-6.54423
-6.10347
-5.68173
-5.2727
-4.87187
-4.47614
-4.08352
-3.69272
-3.30298
-2.91384
-2.52502
-2.13638
-1.74783
-1.35931
-0.970814
-0.58235
-0.193973
-32.1538
-24.7172
-21.4378
-19.8275
-18.8932
-18.2359
-17.6866
-17.1663
-16.6329
-16.0614
-15.4361
-14.7511
-14.0105
-13.2269
-12.4169
-11.5989
-10.7914
-10.0132
-9.28186
-8.61064
-8.00394
-7.45735
-6.96078
-6.50228
-6.0707
-5.65704
-5.25464
-4.85898
-4.46713
-4.07733
-3.68853
-3.30017
-2.91198
-2.5238
-2.13559
-1.74732
-1.35899
-0.970631
-0.582261
-0.193958
-33.0773
-25.1337
-21.6393
-19.9357
-18.9613
-18.2888
-17.7366
-17.2192
-16.6908
-16.1227
-15.4969
-14.8059
-14.0538
-13.2546
-12.4271
-11.5906
-10.765
-9.97062
-9.22724
-8.54987
-7.94322
-7.40157
-6.91284
-6.46321
-6.04021
-5.63405
-5.23779
-4.84692
-4.45867
-4.07148
-3.68454
-3.29748
-2.91018
-2.52261
-2.1348
-1.74681
-1.35867
-0.970442
-0.582171
-0.193944
-33.7038
-25.4216
-21.783
-20.0164
-19.0146
-18.3318
-17.7778
-17.2629
-16.7382
-16.1727
-15.5462
-14.8502
-14.0888
-13.2773
-12.4359
-11.5849
-10.745
-9.93786
-9.18478
-8.50237
-7.89562
-7.3578
-6.87521
-6.43254
-6.01624
-5.61594
-5.22449
-4.83736
-4.45192
-4.06677
-3.6813
-3.29527
-2.90868
-2.52159
-2.13412
-1.74636
-1.35838
-0.970269
-0.582086
-0.193931
-34.0217
-25.57
-21.8591
-20.0608
-19.0454
-18.3576
-17.803
-17.2897
-16.7672
-16.2032
-15.5763
-14.8772
-14.1103
-13.2916
-12.4421
-11.5827
-10.7346
-9.91986
-9.16093
-8.47537
-7.86838
-7.33263
-6.8535
-6.41478
-6.0023
-5.60534
-5.21663
-4.83164
-4.44782
-4.06387
-3.67925
-3.29383
-2.90767
-2.52089
-2.13363
-1.74602
-1.35816
-0.970128
-0.582013
-0.193915
-22.0116
-21.2877
-20.4131
-19.6121
-18.91
-18.2792
-17.6865
-17.105
-16.5146
-15.9018
-15.2584
-14.5815
-13.8735
-13.1408
-12.3933
-11.6425
-10.901
-10.1807
-9.4919
-8.84191
-8.23437
-7.66916
-7.14306
-6.65085
-6.18647
-5.74391
-5.3178
-4.90368
-4.49806
-4.0983
-3.70252
-3.30938
-2.91795
-2.52763
-2.13801
-1.74882
-1.35991
-0.971169
-0.582555
-0.194069
-22.3601
-21.3769
-20.3916
-19.5631
-18.8621
-18.2386
-17.6527
-17.0762
-16.4896
-15.8797
-15.2393
-14.5659
-13.8619
-13.1338
-12.3911
-11.6451
-10.9081
-10.1917
-9.50571
-8.85735
-8.25023
-7.68437
-7.15683
-6.66272
-6.19628
-5.75172
-5.32383
-4.90821
-4.50138
-4.1007
-3.70422
-3.31056
-2.91877
-2.52819
-2.13839
-1.74909
-1.36009
-0.971297
-0.582641
-0.194094
-23.0651
-21.7159
-20.5107
-19.585
-18.8492
-18.2175
-17.6335
-17.062
-16.4804
-15.8749
-15.2376
-14.566
-13.8626
-13.1343
-12.3906
-11.6435
-10.9051
-10.1875
-9.50063
-8.852
-8.24521
-7.68013
-7.15358
-6.66047
-6.19488
-5.75098
-5.32353
-4.90819
-4.50151
-4.1009
-3.70443
-3.31076
-2.91894
-2.52833
-2.13851
-1.74917
-1.36016
-0.971347
-0.582668
-0.194085
-23.9034
-22.1812
-20.7244
-19.6702
-18.8776
-18.225
-17.6366
-17.0674
-16.4902
-15.8887
-15.2535
-14.5816
-13.8754
-13.1423
-12.3926
-11.6389
-10.894
-10.1706
-9.47957
-8.8289
-8.22227
-7.65912
-7.1356
-6.64591
-6.18365
-5.74265
-5.31757
-4.90406
-4.49872
-4.09906
-3.70324
-3.31001
-2.91848
-2.52806
-2.13835
-1.74909
-1.36011
-0.971324
-0.582655
-0.194072
-24.7456
-22.6844
-20.9849
-19.797
-18.9394
-18.2591
-17.6618
-17.0925
-16.5186
-15.9202
-15.2859
-14.6115
-13.8993
-13.1575
-12.3973
-11.6324
-10.8765
-10.1435
-9.44541
-8.79115
-8.18453
-7.62428
-7.10547
-6.62122
-6.16429
-5.72804
-5.30689
-4.89645
-4.49344
-4.09546
-3.70084
-3.30843
-2.91745
-2.5274
-2.13793
-1.74883
-1.35996
-0.971238
-0.582613
-0.194063
-25.5183
-23.1671
-21.253
-19.9419
-19.021
-18.3116
-17.7037
-17.1331
-16.5616
-15.9655
-15.3311
-14.6524
-13.9318
-13.1782
-12.4044
-11.6249
-10.8549
-10.1094
-9.40208
-8.74307
-8.13637
-7.57978
-7.06691
-6.58952
-6.13934
-5.70908
-5.29292
-4.88642
-4.48638
-4.09059
-3.69753
-3.30622
-2.91599
-2.52644
-2.13732
-1.74844
-1.35972
-0.971101
-0.582548
-0.194057
-26.1772
-23.5906
-21.4993
-20.0838
-19.1077
-18.372
-17.754
-17.1818
-16.6123
-16.0182
-15.3829
-14.699
-13.9686
-13.2018
-12.4129
-11.6176
-10.832
-10.0727
-9.35498
-8.69066
-8.08387
-7.53131
-7.02495
-6.55502
-6.11213
-5.68837
-5.27759
-4.87535
-4.47856
-4.08515
-3.69381
-3.30369
-2.9143
-2.52533
-2.13658
-1.74797
-1.35943
-0.970931
-0.58247
-0.194054
-26.6937
-23.9289
-21.7022
-20.2059
-19.1862
-18.4295
-17.8034
-17.23
-16.6623
-16.0698
-15.4335
-14.7443
-14.0043
-13.2249
-12.4217
-11.6112
-10.811
-10.0384
-9.31074
-8.64127
-8.03438
-7.48564
-6.98544
-6.52254
-6.08651
-5.66882
-5.26309
-4.86484
-4.47108
-4.07992
-3.69019
-3.30123
-2.91263
-2.52421
-2.13584
-1.74748
-1.35912
-0.97075
-0.582386
-0.194051
-27.049
-24.1647
-21.8468
-20.2956
-19.2461
-18.475
-17.8434
-17.2695
-16.7033
-16.112
-15.4747
-14.7812
-14.0335
-13.2439
-12.4293
-11.607
-10.7951
-10.012
-9.2762
-8.60249
-7.99539
-7.44962
-6.95426
-6.49689
-6.06625
-5.65333
-5.25155
-4.85643
-4.46506
-4.07567
-3.68723
-3.29917
-2.91122
-2.52324
-2.13519
-1.74705
-1.35884
-0.970581
-0.582305
-0.194045
-27.2313
-24.2871
-21.9232
-20.3444
-19.28
-18.5017
-17.8676
-17.2937
-16.7285
-16.138
-15.5001
-14.8039
-14.0515
-13.256
-12.4347
-11.6056
-10.7868
-9.99744
-9.25676
-8.58037
-7.97299
-7.42883
-6.93618
-6.48195
-6.05437
-5.64418
-5.24467
-4.85136
-4.46137
-4.07301
-3.68533
-3.29783
-2.91027
-2.52257
-2.13472
-1.74672
-1.35862
-0.970443
-0.582234
-0.194034
-21.0258
-20.7004
-20.1321
-19.5002
-18.8792
-18.2842
-17.7063
-17.1303
-16.5414
-15.928
-15.2824
-14.602
-13.8892
-13.1508
-12.397
-11.64
-10.8927
-10.1675
-9.47517
-8.82344
-8.21594
-7.65222
-7.12851
-6.63907
-6.17738
-5.73719
-5.313
-4.90037
-4.49583
-4.09684
-3.70158
-3.30878
-2.91759
-2.52741
-2.13788
-1.74875
-1.35987
-0.971138
-0.582523
-0.194032
-21.0792
-20.7017
-20.0927
-19.4477
-18.8273
-18.2365
-17.6625
-17.0893
-16.5027
-15.8918
-15.2498
-14.5746
-13.8686
-13.1383
-12.3934
-11.6454
-10.9066
-10.1885
-9.50147
-8.85267
-8.24574
-7.68055
-7.1539
-6.66071
-6.19505
-5.75109
-5.32361
-4.90824
-4.50155
-4.10092
-3.70444
-3.31076
-2.91894
-2.52833
-2.1385
-1.74917
-1.36016
-0.971342
-0.582663
-0.194082
-21.3318
-20.8672
-20.167
-19.467
-18.8203
-18.2194
-17.6432
-17.0712
-16.4871
-15.8791
-15.2399
-14.5672
-13.8635
-13.1353
-12.3924
-11.6462
-10.9088
-10.1919
-9.5057
-8.85764
-8.25131
-7.68648
-7.15987
-6.66639
-6.20018
-5.75551
-5.32726
-4.91115
-4.5038
-4.10262
-3.7057
-3.31169
-2.9196
-2.5288
-2.13884
-1.74941
-1.36032
-0.971459
-0.582733
-0.194086
-21.7038
-21.1339
-20.3197
-19.5427
-18.8535
-18.2326
-17.649
-17.0762
-16.4941
-15.8887
-15.2512
-14.5785
-13.8729
-13.1415
-12.3944
-11.6437
-10.9016
-10.1805
-9.49122
-8.84182
-8.23596
-7.67295
-7.14885
-6.65796
-6.19408
-5.75131
-5.32449
-4.90941
-4.50275
-4.10202
-3.70539
-3.31154
-2.91955
-2.5288
-2.13886
-1.74944
-1.36036
-0.971492
-0.582755
-0.194085
-22.1215
-21.4466
-20.5157
-19.6554
-18.917
-18.271
-17.677
-17.102
-16.5214
-15.9182
-15.2815
-14.6065
-13.8953
-13.156
-12.3997
-11.6391
-10.8872
-10.1573
-9.46134
-8.80876
-8.20331
-7.64339
-7.12386
-6.63795
-6.17874
-5.73996
-5.31635
-4.90372
-4.49887
-4.09942
-3.70368
-3.31043
-2.91885
-2.52836
-2.13859
-1.74928
-1.36027
-0.971449
-0.58274
-0.194089
-22.5321
-21.7622
-20.724
-19.7847
-18.9978
-18.326
-17.7208
-17.1432
-16.5642
-15.9632
-15.3265
-14.6474
-13.9277
-13.1769
-12.4076
-11.6334
-10.868
-10.1256
-9.42014
-8.763
-8.15806
-7.60236
-7.089
-6.6098
-6.15692
-5.7236
-5.30441
-4.89521
-4.49293
-4.09534
-3.70092
-3.30859
-2.91764
-2.52757
-2.13809
-1.74897
-1.36008
-0.971344
-0.582698
-0.194099
-22.8989
-22.0491
-20.9198
-19.9122
-19.0825
-18.3874
-17.7721
-17.1923
-16.6152
-16.0166
-15.3797
-14.6956
-13.9655
-13.2012
-12.4171
-11.6274
-10.8466
-10.0899
-9.37324
-8.71082
-8.10659
-7.55582
-7.04952
-6.57791
-6.13213
-5.70491
-5.29069
-4.88536
-4.48597
-4.09052
-3.69761
-3.30635
-2.91614
-2.52658
-2.13744
-1.74855
-1.35982
-0.971198
-0.582636
-0.194111
-23.196
-22.284
-21.0838
-20.0225
-19.1588
-18.4451
-17.822
-17.2408
-16.6657
-16.0695
-15.4325
-14.7433
-14.0027
-13.2251
-12.4266
-11.6222
-10.8267
-10.0559
-9.32798
-8.66032
-8.05687
-7.51098
-7.01157
-6.54728
-6.10829
-5.68691
-5.27742
-4.87576
-4.47916
-4.08575
-3.69431
-3.30409
-2.9146
-2.52555
-2.13675
-1.7481
-1.35954
-0.971034
-0.582565
-0.194122
-23.4051
-22.4506
-21.202
-20.1039
-19.2169
-18.4905
-17.8621
-17.2804
-16.7072
-16.1129
-15.4756
-14.782
-14.0328
-13.2446
-12.4347
-11.6186
-10.8114
-10.0294
-9.29232
-8.62024
-8.01724
-7.47519
-6.98126
-6.52279
-6.08921
-5.67245
-5.26671
-4.86798
-4.47359
-4.08181
-3.69156
-3.30218
-2.91328
-2.52464
-2.13613
-1.74769
-1.35927
-0.970876
-0.582494
-0.194127
-23.5145
-22.5383
-21.2652
-20.1485
-19.2497
-18.517
-17.8862
-17.3046
-16.7327
-16.1396
-15.5021
-14.8059
-14.0515
-13.2569
-12.4404
-11.6176
-10.8035
-10.0148
-9.27217
-8.59723
-7.9943
-7.45435
-6.96353
-6.5084
-6.07793
-5.66384
-5.26027
-4.86323
-4.47013
-4.07931
-3.68977
-3.3009
-2.91237
-2.524
-2.13568
-1.74737
-1.35906
-0.970743
-0.582427
-0.194122
-20.2922
-20.1307
-19.7678
-19.2949
-18.7769
-18.2436
-17.7016
-17.1463
-16.5692
-15.9614
-15.3167
-14.6331
-13.9136
-13.1663
-12.4021
-11.6343
-10.8767
-10.1427
-9.444
-8.78908
-8.18165
-7.62063
-7.10131
-6.6169
-6.16016
-5.72433
-5.30373
-4.89387
-4.4914
-4.09389
-3.69965
-3.30755
-2.91681
-2.52693
-2.13759
-1.74858
-1.35977
-0.971075
-0.582477
-0.194001
-20.2528
-20.0946
-19.7164
-19.2362
-18.7177
-18.1863
-17.6463
-17.0924
-16.5168
-15.9115
-15.2712
-14.5945
-13.8845
-13.1486
-12.3971
-11.6421
-10.8966
-10.1727
-9.48152
-8.83067
-8.22385
-7.6605
-7.13676
-6.64687
-6.18441
-5.74325
-5.31803
-4.90441
-4.49899
-4.09925
-3.70339
-3.31012
-2.91856
-2.52812
-2.13839
-1.74912
-1.36013
-0.971334
-0.582657
-0.194069
-20.3092
-20.1525
-19.7445
-19.238
-18.7037
-18.1646
-17.6219
-17.0683
-16.4944
-15.8919
-15.2549
-14.5817
-13.8753
-13.1433
-12.3958
-11.6448
-10.9026
-10.1815
-9.49228
-8.84287
-8.23698
-7.67389
-7.14969
-6.65868
-6.19468
-5.7518
-5.32488
-4.90972
-4.503
-4.10221
-3.70554
-3.31165
-2.91964
-2.52887
-2.13891
-1.74948
-1.36039
-0.971508
-0.582762
-0.194086
-20.4548
-20.2837
-19.8331
-19.2879
-18.7277
-18.1745
-17.626
-17.0717
-16.5
-15.9004
-15.2657
-14.5929
-13.8848
-13.1498
-12.3988
-11.6438
-10.8975
-10.1721
-9.47965
-8.82911
-8.22427
-7.66363
-7.1423
-6.65393
-6.19199
-5.75055
-5.32454
-4.90987
-4.50338
-4.10267
-3.70598
-3.31204
-2.91996
-2.52912
-2.13911
-1.74963
-1.3605
-0.971593
-0.582816
-0.194098
-20.6553
-20.4598
-19.9604
-19.3709
-18.7802
-18.2097
-17.6538
-17.0987
-16.5299
-15.934
-15.301
-14.626
-13.9113
-13.1672
-12.406
-11.6406
-10.8833
-10.1475
-9.44676
-8.79274
-8.18928
-7.63322
-7.11778
-6.63525
-6.17838
-5.74097
-5.318
-4.90553
-4.50056
-4.10088
-3.70486
-3.31136
-2.91956
-2.52889
-2.13898
-1.74957
-1.36048
-0.971595
-0.58283
-0.194117
-20.8763
-20.6524
-20.1043
-19.471
-18.8495
-18.2614
-17.6983
-17.1432
-16.5783
-15.9873
-15.3565
-14.6774
-13.9516
-13.1931
-12.4169
-11.636
-10.8628
-10.1112
-9.39746
-8.73812
-8.13682
-7.58752
-7.08059
-6.60643
-6.15687
-5.72539
-5.30698
-4.89789
-4.49535
-4.09738
-3.70255
-3.30984
-2.91857
-2.52827
-2.13859
-1.74933
-1.36034
-0.971527
-0.582812
-0.194142
-21.0887
-20.837
-20.2452
-19.5727
-18.9236
-18.3198
-17.7507
-17.1968
-16.6373
-16.0525
-15.4246
-14.7405
-13.9999
-13.2238
-12.4297
-11.6309
-10.8391
-10.0683
-9.33783
-8.6722
-8.07416
-7.5334
-7.03673
-6.57244
-6.13138
-5.70676
-5.29364
-4.88851
-4.48886
-4.09294
-3.69954
-3.30783
-2.91724
-2.52739
-2.13802
-1.74897
-1.36012
-0.971408
-0.582771
-0.19417
-21.2695
-20.9939
-20.3667
-19.6626
-18.9914
-18.3752
-17.802
-17.25
-16.6963
-16.1183
-15.4938
-14.8045
-14.0477
-13.2537
-12.4422
-11.6261
-10.8163
-10.0264
-9.27788
-8.606
-8.01171
-7.47986
-6.99356
-6.53905
-6.10632
-5.68838
-5.28042
-4.87914
-4.48231
-4.08841
-3.69644
-3.30572
-2.91582
-2.52644
-2.13739
-1.74856
-1.35987
-0.971264
-0.582715
-0.194195
-21.4011
-21.1082
-20.4561
-19.73
-19.0435
-18.419
-17.8434
-17.2936
-16.7449
-16.1722
-15.5499
-14.8556
-14.0858
-13.2774
-12.4521
-11.6226
-10.7988
-9.99363
-9.23082
-8.55322
-7.96145
-7.43662
-6.95865
-6.51203
-6.08601
-5.67345
-5.26962
-4.87143
-4.47687
-4.08461
-3.6938
-3.3039
-2.91457
-2.52558
-2.13681
-1.74817
-1.35962
-0.971119
-0.582654
-0.194211
-21.4719
-21.1697
-20.5048
-19.7675
-19.0734
-18.4449
-17.8684
-17.3202
-16.7746
-16.2052
-15.5841
-14.8866
-14.1089
-13.292
-12.459
-11.6219
-10.79
-9.97588
-9.20428
-8.52282
-7.93216
-7.41126
-6.93809
-6.49604
-6.07393
-5.66448
-5.26306
-4.86669
-4.47346
-4.08217
-3.69206
-3.30267
-2.91369
-2.52496
-2.13637
-1.74787
-1.35941
-0.970992
-0.582594
-0.194212
-19.7583
-19.6593
-19.4168
-19.0632
-18.6398
-18.1738
-17.6778
-17.1532
-16.5957
-15.9992
-15.3584
-14.6723
-13.945
-13.1859
-12.408
-11.6255
-10.8538
-10.1075
-9.39987
-8.74049
-8.1332
-7.57606
-7.06292
-6.58561
-6.1358
-5.70609
-5.29052
-4.88457
-4.48501
-4.0896
-3.69684
-3.30573
-2.91566
-2.52622
-2.13715
-1.74832
-1.35961
-0.970986
-0.582427
-0.19398
-19.6963
-19.6133
-19.3631
-19.0025
-18.5759
-18.109
-17.6124
-17.0874
-16.5303
-15.9359
-15.3002
-14.6227
-13.9075
-13.1632
-12.4016
-11.6358
-10.8797
-10.1466
-9.44866
-8.79442
-8.18767
-7.62718
-7.10803
-6.6234
-6.16609
-5.72949
-5.30805
-4.89736
-4.49414
-4.09601
-3.70126
-3.30875
-2.9177
-2.52759
-2.13808
-1.74894
-1.36003
-0.971283
-0.582633
-0.194064
-19.6706
-19.6153
-19.3605
-18.9885
-18.5528
-18.0806
-17.582
-17.0573
-16.5022
-15.9111
-15.2796
-14.6065
-13.8958
-13.1566
-12.4005
-11.6401
-10.8887
-10.1592
-9.46362
-8.81126
-8.20586
-7.64583
-7.12607
-6.63988
-6.18037
-5.74131
-5.31744
-4.9046
-4.49956
-4.09997
-3.70411
-3.31077
-2.91911
-2.52856
-2.13875
-1.7494
-1.36035
-0.971502
-0.582767
-0.194095
-19.7078
-19.6676
-19.4024
-19.0138
-18.5646
-18.0844
-17.583
-17.0596
-16.5085
-15.9223
-15.2945
-14.6222
-13.909
-13.1657
-12.4053
-11.6404
-10.8837
-10.1484
-9.44802
-8.79422
-8.19084
-7.63473
-7.11916
-6.63646
-6.17942
-5.74184
-5.31871
-4.9061
-4.50102
-4.10124
-3.70515
-3.31158
-2.91973
-2.52903
-2.13909
-1.74965
-1.36054
-0.971633
-0.58285
-0.194121
-19.7975
-19.7595
-19.4775
-19.0685
-18.6032
-18.1138
-17.61
-17.0896
-16.5452
-15.9665
-15.3433
-14.6688
-13.9456
-13.1896
-12.4161
-11.6381
-10.8672
-10.117
-9.40379
-8.74545
-8.14547
-7.59716
-7.09049
-6.61587
-6.16532
-5.73256
-5.31282
-4.90248
-4.49887
-4.10001
-3.70448
-3.31124
-2.91958
-2.52897
-2.13909
-1.74968
-1.36058
-0.971675
-0.582891
-0.194155
-19.9187
-19.8738
-19.5714
-19.1406
-18.6588
-18.1607
-17.6557
-17.1407
-16.6062
-16.0388
-15.4229
-14.7443
-14.0026
-13.2255
-12.432
-11.6342
-10.8421
-10.0682
-9.33287
-8.66764
-8.07389
-7.53802
-7.04488
-6.5823
-6.14144
-5.71601
-5.30159
-4.895
-4.49396
-4.09684
-3.70245
-3.30996
-2.91877
-2.52848
-2.13879
-1.74951
-1.36049
-0.971641
-0.582897
-0.194196
-20.0489
-19.9923
-19.6691
-19.2177
-18.721
-18.2155
-17.7109
-17.2034
-16.6819
-16.1301
-15.5256
-14.8429
-14.0728
-13.2681
-12.4504
-11.6296
-10.8125
-10.0084
-9.24029
-8.56756
-7.98425
-7.46544
-6.98948
-6.54159
-6.1123
-5.69557
-5.28748
-4.88539
-4.48749
-4.09252
-3.6996
-3.30809
-2.91756
-2.5277
-2.13829
-1.7492
-1.3603
-0.971549
-0.582876
-0.19424
-20.1674
-20.0983
-19.7568
-19.2882
-18.7793
-18.2685
-17.7655
-17.2664
-16.759
-16.2244
-15.6338
-14.9481
-14.1428
-13.309
-12.4678
-11.6251
-10.7839
-9.94926
-9.14097
-8.46205
-7.89189
-7.39188
-6.93389
-6.50092
-6.08319
-5.67507
-5.27323
-4.87559
-4.48081
-4.088
-3.69656
-3.30606
-2.91621
-2.52681
-2.13771
-1.74882
-1.36007
-0.971425
-0.582835
-0.194278
-20.2577
-20.1783
-19.8233
-19.3423
-18.8251
-18.3109
-17.8101
-17.3182
-16.8223
-16.3008
-15.7191
-15.0274
-14.1955
-13.3391
-12.4798
-11.6208
-10.7617
-9.90381
-9.06647
-8.37952
-7.81772
-7.33214
-6.88859
-6.46773
-6.0594
-5.65826
-5.26147
-4.86743
-4.47519
-4.08415
-3.69393
-3.30427
-2.91499
-2.52598
-2.13715
-1.74845
-1.35984
-0.971292
-0.582785
-0.194304
-20.308
-20.2227
-19.8604
-19.3732
-18.8518
-18.3364
-17.8372
-17.3499
-16.8609
-16.3471
-15.7701
-15.0741
-14.226
-13.3567
-12.4877
-11.6203
-10.7516
-9.88044
-9.02527
-8.33236
-7.77454
-7.29702
-6.8618
-6.44802
-6.04519
-5.64814
-5.25431
-4.86239
-4.47165
-4.08167
-3.69219
-3.30304
-2.91413
-2.52537
-2.13673
-1.74816
-1.35965
-0.971172
-0.58273
-0.194311
-19.3739
-19.2965
-19.1209
-18.8485
-18.5
-18.0951
-17.6456
-17.1552
-16.6215
-16.0395
-15.4048
-14.7167
-13.9806
-13.2082
-12.414
-11.6144
-10.8258
-10.0648
-9.34641
-8.68167
-8.07466
-7.52231
-7.01671
-6.54798
-6.10651
-5.68414
-5.27459
-4.87333
-4.47727
-4.08438
-3.69338
-3.30349
-2.91423
-2.52532
-2.1366
-1.74799
-1.35942
-0.97088
-0.582375
-0.193969
-19.3117
-19.2512
-19.0694
-18.7885
-18.4339
-18.0247
-17.5719
-17.0787
-16.5437
-15.9632
-15.334
-14.6561
-13.9348
-13.1805
-12.4065
-11.6273
-10.858
-10.1134
-9.4068
-8.74825
-8.14162
-7.58478
-7.07142
-6.59342
-6.1426
-5.71175
-5.29507
-4.88813
-4.48773
-4.09165
-3.69836
-3.30686
-2.91649
-2.52683
-2.13761
-1.74866
-1.35988
-0.9712
-0.582599
-0.194066
-19.2541
-19.2268
-19.0495
-18.7638
-18.4036
-17.9906
-17.5362
-17.0436
-16.5114
-15.9352
-15.3112
-14.6386
-13.9222
-13.1735
-12.4059
-11.6332
-10.8693
-10.1282
-9.42388
-8.76741
-8.1627
-7.60687
-7.09313
-6.61343
-6.16
-5.72615
-5.30649
-4.89689
-4.49426
-4.0964
-3.70176
-3.30925
-2.91815
-2.52798
-2.13839
-1.7492
-1.36025
-0.971453
-0.582756
-0.194112
-19.2406
-19.2366
-19.0622
-18.7712
-18.4049
-17.9887
-17.5348
-17.0464
-16.5212
-15.9531
-15.3353
-14.6636
-13.9423
-13.187
-12.4132
-11.6343
-10.863
-10.1129
-9.40034
-8.74168
-8.14062
-7.59122
-7.08397
-6.60939
-6.15938
-5.72747
-5.30867
-4.89926
-4.49645
-4.09826
-3.70324
-3.31039
-2.91901
-2.5286
-2.13885
-1.74953
-1.36048
-0.97162
-0.582864
-0.194154
-19.2744
-19.2803
-19.103
-18.8045
-18.4318
-18.0133
-17.5623
-17.0822
-16.5695
-16.0154
-15.4074
-14.7336
-13.995
-13.2203
-12.4287
-11.6326
-10.8419
-10.0692
-9.33474
-8.66997
-8.07634
-7.54036
-7.04697
-6.5841
-6.14294
-5.71725
-5.3026
-4.89581
-4.49461
-4.09735
-3.70286
-3.31028
-2.91903
-2.52868
-2.13895
-1.74962
-1.36057
-0.971698
-0.582928
-0.194204
-19.3435
-19.3482
-19.1632
-18.8554
-18.4762
-18.0565
-17.6111
-17.1439
-16.6506
-16.1196
-15.5299
-14.8535
-14.0782
-13.2699
-12.4509
-11.6292
-10.8097
-9.99973
-9.22189
-8.54911
-7.97126
-7.4585