# vtk DataFile Version 2.0
I need something to put here
ASCII

DATASET STRUCTURED_GRID
DIMENSIONS 14 11 21
POINTS 3234 float
1.400000 0.000000 0.000000
1.500000 0.000000 0.000000
1.600000 0.000000 0.000000
1.700000 0.000000 0.000000
1.800000 0.000000 0.000000
1.900000 0.000000 0.000000
2.000000 0.000000 0.000000
2.100000 0.000000 0.000000
2.200000 0.000000 0.000000
2.300000 0.000000 0.000000
2.400000 0.000000 0.000000
2.500000 0.000000 0.000000
2.600000 0.000000 0.000000
2.700000 0.000000 0.000000
1.400000 0.100000 0.000000
1.500000 0.100000 0.000000
1.600000 0.100000 0.000000
1.700000 0.100000 0.000000
1.800000 0.100000 0.000000
1.900000 0.100000 0.000000
2.000000 0.100000 0.000000
2.100000 0.100000 0.000000
2.200000 0.100000 0.000000
2.300000 0.100000 0.000000
2.400000 0.100000 0.000000
2.500000 0.100000 0.000000
2.600000 0.100000 0.000000
2.700000 0.100000 0.000000
1.400000 0.200000 0.000000
1.500000 0.200000 0.000000
1.600000 0.200000 0.000000
1.700000 0.200000 0.000000
1.800000 0.200000 0.000000
1.900000 0.200000 0.000000
2.000000 0.200000 0.000000
2.100000 0.200000 0.000000
2.200000 0.200000 0.000000
2.300000 0.200000 0.000000
2.400000 0.200000 0.000000
2.500000 0.200000 0.000000
2.600000 0.200000 0.000000
2.700000 0.200000 0.000000
1.400000 0.300000 0.000000
1.500000 0.300000 0.000000
1.600000 0.300000 0.000000
1.700000 0.300000 0.000000
1.800000 0.300000 0.000000
1.900000 0.300000 0.000000
2.000000 0.300000 0.000000
2.100000 0.300000 0.000000
2.200000 0.300000 0.000000
2.300000 0.300000 0.000000
2.400000 0.300000 0.000000
2.500000 0.300000 0.000000
2.600000 0.300000 0.000000
2.700000 0.300000 0.000000
1.400000 0.400000 0.000000
1.500000 0.400000 0.000000
1.600000 0.400000 0.000000
1.700000 0.400000 0.000000
1.800000 0.400000 0.000000
1.900000 0.400000 0.000000
2.000000 0.400000 0.000000
2.100000 0.400000 0.000000
2.200000 0.400000 0.000000
2.300000 0.400000 0.000000
2.400000 0.400000 0.000000
2.500000 0.400000 0.000000
2.600000 0.400000 0.000000
2.700000 0.400000 0.000000
1.400000 0.500000 0.000000
1.500000 0.500000 0.000000
1.600000 0.500000 0.000000
1.700000 0.500000 0.000000
1.800000 0.500000 0.000000
1.900000 0.500000 0.000000
2.000000 0.500000 0.000000
2.100000 0.500000 0.000000
2.200000 0.500000 0.000000
2.300000 0.500000 0.000000
2.400000 0.500000 0.000000
2.500000 0.500000 0.000000
2.600000 0.500000 0.000000
2.700000 0.500000 0.000000
1.400000 0.600000 0.000000
1.500000 0.600000 0.000000
1.600000 0.600000 0.000000
1.700000 0.600000 0.000000
1.800000 0.600000 0.000000
1.900000 0.600000 0.000000
2.000000 0.600000 0.000000
2.100000 0.600000 0.000000
2.200000 0.600000 0.000000
2.300000 0.600000 0.000000
2.400000 0.600000 0.000000
2.500000 0.600000 0.000000
2.600000 0.600000 0.000000
2.700000 0.600000 0.000000
1.400000 0.700000 0.000000
1.500000 0.700000 0.000000
1.600000 0.700000 0.000000
1.700000 0.700000 0.000000
1.800000 0.700000 0.000000
1.900000 0.700000 0.000000
2.000000 0.700000 0.000000
2.100000 0.700000 0.000000
2.200000 0.700000 0.000000
2.300000 0.700000 0.000000
2.400000 0.700000 0.000000
2.500000 0.700000 0.000000
2.600000 0.700000 0.000000
2.700000 0.700000 0.000000
1.400000 0.800000 0.000000
1.500000 0.800000 0.000000
1.600000 0.800000 0.000000
1.700000 0.800000 0.000000
1.800000 0.800000 0.000000
1.900000 0.800000 0.000000
2.000000 0.800000 0.000000
2.100000 0.800000 0.000000
2.200000 0.800000 0.000000
2.300000 0.800000 0.000000
2.400000 0.800000 0.000000
2.500000 0.800000 0.000000
2.600000 0.800000 0.000000
2.700000 0.800000 0.000000
1.400000 0.900000 0.000000
1.500000 0.900000 0.000000
1.600000 0.900000 0.000000
1.700000 0.900000 0.000000
1.800000 0.900000 0.000000
1.900000 0.900000 0.000000
2.000000 0.900000 0.000000
2.100000 0.900000 0.000000
2.200000 0.900000 0.000000
2.300000 0.900000 0.000000
2.400000 0.900000 0.000000
2.500000 0.900000 0.000000
2.600000 0.900000 0.000000
2.700000 0.900000 0.000000
1.400000 1.000000 0.000000
1.500000 1.000000 0.000000
1.600000 1.000000 0.000000
1.700000 1.000000 0.000000
1.800000 1.000000 0.000000
1.900000 1.000000 0.000000
2.000000 1.000000 0.000000
2.100000 1.000000 0.000000
2.200000 1.000000 0.000000
2.300000 1.000000 0.000000
2.400000 1.000000 0.000000
2.500000 1.000000 0.000000
2.600000 1.000000 0.000000
2.700000 1.000000 0.000000
1.400000 0.000000 0.100000
1.500000 0.000000 0.100000
1.600000 0.000000 0.100000
1.700000 0.000000 0.100000
1.800000 0.000000 0.100000
1.900000 0.000000 0.100000
2.000000 0.000000 0.100000
2.100000 0.000000 0.100000
2.200000 0.000000 0.100000
2.300000 0.000000 0.100000
2.400000 0.000000 0.100000
2.500000 0.000000 0.100000
2.600000 0.000000 0.100000
2.700000 0.000000 0.100000
1.400000 0.100000 0.100000
1.500000 0.100000 0.100000
1.600000 0.100000 0.100000
1.700000 0.100000 0.100000
1.800000 0.100000 0.100000
1.900000 0.100000 0.100000
2.000000 0.100000 0.100000
2.100000 0.100000 0.100000
2.200000 0.100000 0.100000
2.300000 0.100000 0.100000
2.400000 0.100000 0.100000
2.500000 0.100000 0.100000
2.600000 0.100000 0.100000
2.700000 0.100000 0.100000
1.400000 0.200000 0.100000
1.500000 0.200000 0.100000
1.600000 0.200000 0.100000
1.700000 0.200000 0.100000
1.800000 0.200000 0.100000
1.900000 0.200000 0.100000
2.000000 0.200000 0.100000
2.100000 0.200000 0.100000
2.200000 0.200000 0.100000
2.300000 0.200000 0.100000
2.400000 0.200000 0.100000
2.500000 0.200000 0.100000
2.600000 0.200000 0.100000
2.700000 0.200000 0.100000
1.400000 0.300000 0.100000
1.500000 0.300000 0.100000
1.600000 0.300000 0.100000
1.700000 0.300000 0.100000
1.800000 0.300000 0.100000
1.900000 0.300000 0.100000
2.000000 0.300000 0.100000
2.100000 0.300000 0.100000
2.200000 0.300000 0.100000
2.300000 0.300000 0.100000
2.400000 0.300000 0.100000
2.500000 0.300000 0.100000
2.600000 0.300000 0.100000
2.700000 0.300000 0.100000
1.400000 0.400000 0.100000
1.500000 0.400000 0.100000
1.600000 0.400000 0.100000
1.700000 0.400000 0.100000
1.800000 0.400000 0.100000
1.900000 0.400000 0.100000
2.000000 0.400000 0.100000
2.100000 0.400000 0.100000
2.200000 0.400000 0.100000
2.300000 0.400000 0.100000
2.400000 0.400000 0.100000
2.500000 0.400000 0.100000
2.600000 0.400000 0.100000
2.700000 0.400000 0.100000
1.400000 0.500000 0.100000
1.500000 0.500000 0.100000
1.600000 0.500000 0.100000
1.700000 0.500000 0.100000
1.800000 0.500000 0.100000
1.900000 0.500000 0.100000
2.000000 0.500000 0.100000
2.100000 0.500000 0.100000
2.200000 0.500000 0.100000
2.300000 0.500000 0.100000
2.400000 0.500000 0.100000
2.500000 0.500000 0.100000
2.600000 0.500000 0.100000
2.700000 0.500000 0.100000
1.400000 0.600000 0.100000
1.500000 0.600000 0.100000
1.600000 0.600000 0.100000
1.700000 0.600000 0.100000
1.800000 0.600000 0.100000
1.900000 0.600000 0.100000
2.000000 0.600000 0.100000
2.100000 0.600000 0.100000
2.200000 0.600000 0.100000
2.300000 0.600000 0.100000
2.400000 0.600000 0.100000
2.500000 0.600000 0.100000
2.600000 0.600000 0.100000
2.700000 0.600000 0.100000
1.400000 0.700000 0.100000
1.500000 0.700000 0.100000
1.600000 0.700000 0.100000
1.700000 0.700000 0.100000
1.800000 0.700000 0.100000
1.900000 0.700000 0.100000
2.000000 0.700000 0.100000
2.100000 0.700000 0.100000
2.200000 0.700000 0.100000
2.300000 0.700000 0.100000
2.400000 0.700000 0.100000
2.500000 0.700000 0.100000
2.600000 0.700000 0.100000
2.700000 0.700000 0.100000
1.400000 0.800000 0.100000
1.500000 0.800000 0.100000
1.600000 0.800000 0.100000
1.700000 0.800000 0.100000
1.800000 0.800000 0.100000
1.900000 0.800000 0.100000
2.000000 0.800000 0.100000
2.100000 0.800000 0.100000
2.200000 0.800000 0.100000
2.300000 0.800000 0.100000
2.400000 0.800000 0.100000
2.500000 0.800000 0.100000
2.600000 0.800000 0.100000
2.700000 0.800000 0.100000
1.400000 0.900000 0.100000
1.500000 0.900000 0.100000
1.600000 0.900000 0.100000
1.700000 0.900000 0.100000
1.800000 0.900000 0.100000
1.900000 0.900000 0.100000
2.000000 0.900000 0.100000
2.100000 0.900000 0.100000
2.200000 0.900000 0.100000
2.300000 0.900000 0.100000
2.400000 0.900000 0.100000
2.500000 0.900000 0.100000
2.600000 0.900000 0.100000
2.700000 0.900000 0.100000
1.400000 1.000000 0.100000
1.500000 1.000000 0.100000
1.600000 1.000000 0.100000
1.700000 1.000000 0.100000
1.800000 1.000000 0.100000
1.900000 1.000000 0.100000
2.000000 1.000000 0.100000
2.100000 1.000000 0.100000
2.200000 1.000000 0.100000
2.300000 1.000000 0.100000
2.400000 1.000000 0.100000
2.500000 1.000000 0.100000
2.600000 1.000000 0.100000
2.700000 1.000000 0.100000
1.400000 0.000000 0.200000
1.500000 0.000000 0.200000
1.600000 0.000000 0.200000
1.700000 0.000000 0.200000
1.800000 0.000000 0.200000
1.900000 0.000000 0.200000
2.000000 0.000000 0.200000
2.100000 0.000000 0.200000
2.200000 0.000000 0.200000
2.300000 0.000000 0.200000
2.400000 0.000000 0.200000
2.500000 0.000000 0.200000
2.600000 0.000000 0.200000
2.700000 0.000000 0.200000
1.400000 0.100000 0.200000
1.500000 0.100000 0.200000
1.600000 0.100000 0.200000
1.700000 0.100000 0.200000
1.800000 0.100000 0.200000
1.900000 0.100000 0.200000
2.000000 0.100000 0.200000
2.100000 0.100000 0.200000
2.200000 0.100000 0.200000
2.300000 0.100000 0.200000
2.400000 0.100000 0.200000
2.500000 0.100000 0.200000
2.600000 0.100000 0.200000
2.700000 0.100000 0.200000
1.400000 0.200000 0.200000
1.500000 0.200000 0.200000
1.600000 0.200000 0.200000
1.700000 0.200000 0.200000
1.800000 0.200000 0.200000
1.900000 0.200000 0.200000
2.000000 0.200000 0.200000
2.100000 0.200000 0.200000
2.200000 0.200000 0.200000
2.300000 0.200000 0.200000
2.400000 0.200000 0.200000
2.500000 0.200000 0.200000
2.600000 0.200000 0.200000
2.700000 0.200000 0.200000
1.400000 0.300000 0.200000
1.500000 0.300000 0.200000
1.600000 0.300000 0.200000
1.700000 0.300000 0.200000
1.800000 0.300000 0.200000
1.900000 0.300000 0.200000
2.000000 0.300000 0.200000
2.100000 0.300000 0.200000
2.200000 0.300000 0.200000
2.300000 0.300000 0.200000
2.400000 0.300000 0.200000
2.500000 0.300000 0.200000
2.600000 0.300000 0.200000
2.700000 0.300000 0.200000
1.400000 0.400000 0.200000
[...]
CELL_DATA 2600
SCALARS pressure float 1
LOOKUP_TABLE default
22.4566
21.1221
19.7973
18.5035
17.2583
16.0747
14.96
13.916
12.9396
12.0243
11.1616
10.3422
9.55721
22.4559
21.1208
19.7954
18.501
17.2556
16.072
14.9575
13.914
12.9382
12.0235
11.1613
10.3423
9.55758
22.4562
21.1125
19.7787
18.4773
17.2268
16.0407
14.9262
13.8847
12.9123
12.0018
11.1439
10.3289
9.54762
22.4577
21.0969
19.747
18.4323
17.1725
15.9817
14.8671
13.8293
12.8635
11.9608
11.1109
10.3033
9.52838
22.4605
21.0745
19.7012
18.3676
17.0947
15.8973
14.7828
13.7507
12.7943
11.9029
11.0644
10.2673
9.50137
22.4646
21.0467
19.6448
18.2881
16.9992
15.7941
14.6801
13.6554
12.7108
11.8332
11.0087
10.2243
9.46921
22.4693
21.0166
19.5836
18.2022
16.8962
15.683
14.57
13.5537
12.6221
11.7597
10.9501
10.1793
9.43566
22.4739
20.9881
19.526
18.1215
16.7996
15.5791
14.4673
13.4591
12.5401
11.6919
10.8964
10.1382
9.40507
22.4775
20.9659
19.481
18.0584
16.7243
15.4982
14.3876
13.386
12.4769
11.6398
10.8553
10.1067
9.38173
22.4798
20.9538
19.4564
18.0239
16.683
15.4539
14.344
13.346
12.4423
11.6115
10.8329
10.0896
9.36906
22.4595
21.1228
19.7964
18.5015
17.2558
16.072
14.9575
13.914
12.9382
12.0235
11.1613
10.3423
9.55754
22.4544
21.1259
19.8073
18.5191
17.2785
16.0982
14.9851
13.9413
12.9639
12.0466
11.1813
10.359
9.5712
22.4522
21.1216
19.8011
18.5115
17.2702
16.0899
14.9777
13.9353
12.9595
12.0438
11.1799
10.3587
9.57164
22.4518
21.1101
19.7792
18.4813
17.2344
16.0516
14.9399
13.9005
12.9293
12.019
11.1604
10.344
9.56099
22.453
21.092
19.7436
18.4316
17.1752
15.988
14.8768
13.842
12.8781
11.9764
11.1264
10.3179
9.54159
22.4555
21.069
19.6978
18.3679
17.0992
15.9062
14.7959
13.7671
12.8126
11.9218
11.0828
10.2843
9.51647
22.4587
21.0436
19.6475
18.298
17.0158
15.8167
14.7074
13.6855
12.7415
11.8627
11.0357
10.248
9.48933
22.462
21.0196
19.5999
18.2318
16.9371
15.7323
14.6243
13.6091
12.6752
11.8078
10.9919
10.2143
9.46419
22.4646
21.0007
19.5626
18.1801
16.8756
15.6665
14.5596
13.5497
12.6238
11.7653
10.9582
10.1884
9.44486
22.4662
20.9906
19.5422
18.1518
16.8419
15.6304
14.5242
13.5173
12.5957
11.7421
10.9398
10.1743
9.43432
22.4698
21.1209
19.7837
18.4802
17.2285
16.0416
14.9267
13.8849
12.9124
12.0019
11.1439
10.3289
9.54757
22.4608
21.1273
19.8047
18.5137
17.2716
16.0907
14.9782
13.9356
12.9596
12.0439
11.1799
10.3587
9.57164
22.4564
21.1258
19.8061
18.5181
17.2786
16.1001
14.9893
13.9479
12.9724
12.0565
11.1918
10.3694
9.58093
22.4547
21.1158
19.7891
18.4959
17.2534
16.0742
14.9651
13.9269
12.9556
12.0439
11.1829
10.3637
9.57758
22.4548
21.0977
19.7556
18.4508
17.2007
16.0187
14.9115
13.8787
12.9148
12.011
11.1577
10.345
9.56429
22.4562
21.073
19.7095
18.3885
17.1276
15.9414
14.8366
13.8111
12.8573
11.9644
11.1213
10.3177
9.54437
22.4582
21.0443
19.6567
18.3177
17.0441
15.8531
14.7513
13.7345
12.7923
11.9117
11.0802
10.2866
9.5216
22.4601
21.0159
19.6054
18.2491
16.963
15.7676
14.6691
13.6612
12.7303
11.8616
11.0412
10.2571
9.49994
22.4612
20.9934
19.5646
18.1946
16.8988
15.6999
14.6044
13.6035
12.6818
11.8225
11.0108
10.2342
9.48307
22.4619
20.9813
19.5423
18.1645
16.8633
15.6627
14.5688
13.5719
12.6551
11.8011
10.9941
10.2216
9.47382
22.4844
21.1141
19.7577
18.4389
17.1765
15.984
14.8684
13.8301
12.8639
11.961
11.111
10.3033
9.52836
22.4716
21.1233
19.7878
18.4867
17.2378
16.0537
14.9412
13.9013
12.9298
12.0193
11.1605
10.3441
9.56103
22.465
21.1228
19.7938
18.4989
17.2554
16.0755
14.9659
13.9274
12.9559
12.0441
11.1831
10.3638
9.57762
22.4618
21.111
19.7759
18.4775
17.2324
16.0535
14.9472
13.9135
12.947
12.0395
11.1819
10.3649
9.58011
22.4604
21.0872
19.7355
18.4258
17.1735
15.9931
14.8913
13.8659
12.9091
12.0111
11.1617
10.3512
9.57134
22.4601
21.0519
19.6765
18.3502
17.0857
15.9023
14.8066
13.7931
12.8503
11.9659
11.1282
10.3273
9.55485
22.4599
21.0075
19.6061
18.2611
16.9803
15.7929
14.7054
13.7067
12.7808
11.9123
11.0884
10.2985
9.53463
22.4583
20.9607
19.5354
18.1727
16.8738
15.6829
14.6046
13.6217
12.7129
11.8602
11.0496
10.2705
9.51481
22.4552
20.9236
19.4781
18.1001
16.7876
15.5943
14.5239
13.5539
12.659
11.819
11.019
10.2483
9.49912
22.4533
20.9042
19.4467
18.0596
16.7397
15.5452
14.4792
13.5164
12.6293
11.7963
11.0022
10.2361
9.49047
22.5004
21.1006
19.7179
18.378
17.1011
15.9012
14.7851
13.7521
12.7951
11.9033
11.0646
10.2674
9.50143
22.4839
21.1129
19.7574
18.4405
17.1809
15.9915
14.879
13.8434
12.879
11.9769
11.1267
10.3181
9.54171
22.4749
21.1117
19.765
18.457
17.2048
16.0214
14.9132
13.8798
12.9155
12.0115
11.158
10.3452
9.56442
22.4696
21.0936
19.7399
18.4288
17.1755
15.9945
14.8922
13.8665
12.9095
12.0114
11.1618
10.3513
9.57142
22.4658
21.0558
19.6824
18.3588
17.0961
15.9148
14.8215
13.8097
12.8676
11.9825
11.1434
10.3404
9.56574
22.462
20.9952
19.5954
18.2543
16.9724
15.7886
14.7089
13.7185
12.7984
11.9327
11.109
10.3176
9.55119
22.4557
20.9103
19.4885
18.1299
16.8154
15.628
14.5683
13.6063
12.7141
11.8719
11.0664
10.2886
9.53206
22.4426
20.8107
19.3789
18.0063
16.6471
15.4579
14.423
13.4927
12.6298
11.8114
11.0242
10.2598
9.51276
22.4253
20.7376
19.287
17.8972
16.5087
15.3196
14.3052
13.4012
12.5623
11.7632
10.9905
10.2367
9.49729
22.4161
20.7026
19.2377
17.8358
16.4321
15.2432
14.24
13.3505
12.5249
11.7365
10.9719
10.224
9.4887
22.5152
21.0802
19.6663
18.3016
17.0076
15.7992
14.6833
13.6573
12.712
11.834
11.0092
10.2246
9.46938
22.4955
21.0963
19.716
18.3797
17.1068
15.9111
14.7989
13.769
12.8139
11.9227
11.0833
10.2846
9.5167
22.484
21.0924
19.7227
18.3973
17.1334
15.9452
14.8391
13.8128
12.8584
11.9652
11.1219
10.318
9.54461
22.4757
21.0629
19.6842
18.3554
17.0892
15.9047
14.8083
13.7942
12.8511
11.9664
11.1286
10.3276
9.55505
22.4674
20.999
19.5981
18.2562
16.9738
15.7896
14.7097
13.719
12.7988
11.933
11.1092
10.3177
9.5513
22.4551
20.8851
19.4664
18.11
16.786
15.5995
14.5481
13.5957
12.711
11.8737
11.0708
10.2941
9.53752
22.4275
20.6958
19.303
17.946
16.5265
15.3394
14.3363
13.4393
12.6016
11.7998
11.0223
10.2631
9.5184
22.3633
20.429
19.1408
17.8059
16.2123
15.0413
14.1073
13.2767
12.4904
11.7255
10.9736
10.2318
9.4987
22.2877
20.2727
18.9883
17.6395
15.9608
14.8024
13.9218
13.145
12.4008
11.6659
10.9346
10.2067
9.48276
22.2567
20.2139
18.9123
17.5465
15.8248
14.6727
13.82
13.0722
12.3511
11.6329
10.913
10.1927
9.47389
22.5273
21.055
19.6083
18.2177
16.9059
15.6891
14.5739
13.5561
12.6237
11.7607
10.9508
10.1798
9.43595
22.505
21.0754
19.6687
18.3118
17.0248
15.8225
14.7112
13.688
12.7432
11.8639
11.0364
10.2485
9.48969
22.4909
21.0672
19.6723
18.3281
17.0511
15.8578
14.7545
13.7367
12.7938
11.9128
11.0809
10.2871
9.52196
22.4783
21.0206
19.6151
18.2674
16.9847
15.7961
14.7077
13.7084
12.782
11.9132
11.089
10.299
9.53496
22.4611
20.914
19.4911
18.1319
16.8171
15.6296
14.5696
13.6073
12.7149
11.8725
11.0668
10.289
9.5323
22.4241
20.6932
19.3012
17.9451
16.5264
15.3397
14.3368
13.4398
12.602
11.8001
11.0225
10.2633
9.51853
22.3103
20.2221
19.0804
17.7989
16.0547
14.9
14.0137
13.2209
12.4592
11.7092
10.9661
10.2292
9.49873
21.9737
19.3
18.9417
17.7553
15.2915
14.3247
13.6424
12.9865
12.3119
11.6171
10.9091
10.1945
9.47809
21.629
18.9927
18.6823
17.4042
14.7795
13.8943
13.3476
12.7971
12.1929
11.543
10.8634
10.1666
9.46132
21.5406
18.939
18.5791
17.2683
14.5152
13.6684
13.1886
12.6933
12.1272
11.5021
10.838
10.1511
9.45197
22.5359
21.0291
19.5523
18.138
16.81
15.5857
14.4716
13.462
12.542
11.6933
10.8973
10.1388
9.4055
22.5119
21.0538
19.6227
18.2468
16.9468
15.7387
14.6285
13.6119
12.6771
11.8092
10.9929
10.215
9.46468
22.4949
21.0404
19.6221
18.2604
16.9707
15.7728
14.6728
13.6637
12.7321
11.8629
11.0421
10.2578
9.50044
22.4763
20.9734
19.5443
18.1789
16.8784
15.6863
14.6072
13.6237
12.7144
11.8613
11.0504
10.2711
9.51527
22.4428
20.8105
19.3789
18.0069
16.6483
15.4595
14.4245
13.4941
12.6309
11.8123
11.0248
10.2603
9.51314
22.3441
20.4147
19.131
17.8003
16.2105
15.0414
14.108
13.2775
12.4911
11.7261
10.9741
10.2322
9.49898
21.9326
19.2696
18.9211
17.7428
15.2881
14.3241
13.6426
12.9869
12.3122
11.6174
10.9094
10.1947
9.47824
0.0
0.0
0.0
0.0
12.7602
13.175
13.0679
12.6667
12.1255
11.5068
10.8439
10.1565
9.45651
0.0
0.0
0.0
0.0
11.6059
12.4383
12.6302
12.4104
11.9748
11.4177
10.7913
10.1257
9.43882
0.0
0.0
0.0
0.0
11.0325
12.064
12.399
12.2712
11.8918
11.3685
10.7622
10.1086
9.42897
22.5412
21.0078
19.5079
18.0753
16.735
15.505
14.3921
13.3891
12.479
11.6414
10.8564
10.1075
9.38229
22.516
21.0361
19.5862
18.1956
16.8857
15.6732
14.5641
13.5529
12.626
11.7669
10.9593
10.1892
9.44548
22.4966
21.0183
19.5816
18.2061
16.9067
15.7054
14.6083
13.6064
12.6838
11.824
11.0119
10.235
9.4837
22.4718
20.9353
19.4862
18.106
16.7921
15.5979
14.5267
13.5561
12.6608
11.8204
11.0201
10.2491
9.49973
22.4208
20.734
19.2846
17.8963
16.5094
15.3211
14.3069
13.4028
12.5637
11.7643
10.9914
10.2374
9.49782
22.2592
20.2518
18.974
17.6312
15.958
14.8022
13.9226
13.146
12.4018
11.6667
10.9353
10.2072
9.4832
21.5739
18.9525
18.6541
17.3881
14.7753
13.8937
13.348
12.7978
12.1936
11.5436
10.8638
10.167
9.46163
0.0
0.0
0.0
0.0
11.6073
12.439
12.6307
12.4108
11.9751
11.418
10.7915
10.1259
9.43899
0.0
0.0
0.0
0.0
9.97063
11.5106
12.0877
12.1018
11.7989
11.3169
10.7334
10.0928
9.42056
0.0
0.0
0.0
0.0
9.24865
11.0421
11.8025
11.9345
11.7021
11.2611
10.7014
10.0745
9.41029
22.5438
20.9959
19.4834
18.0409
16.6938
15.4609
14.3487
13.3493
12.4447
11.6132
10.8341
10.0905
9.36974
22.5181
21.0262
19.566
18.1675
16.8522
15.6374
14.5289
13.5207
12.5982
11.7439
10.9411
10.1753
9.43506
22.4972
21.0061
19.5593
18.1761
16.8714
15.6683
14.5729
13.5749
12.6574
11.8028
10.9954
10.2226
9.47458
22.4689
20.9151
19.4544
18.0653
16.7443
15.5489
14.4823
13.5189
12.6313
11.7979
11.0034
10.2371
9.4912
22.409
20.6971
19.2341
17.8343
16.4326
15.2448
14.242
13.3524
12.5265
11.7379
10.973
10.2248
9.48937
22.2238
20.1899
18.8959
17.537
15.8218
14.6727
13.8211
13.0736
12.3524
11.634
10.9139
10.1934
9.47447
21.4801
18.8953
18.5484
17.2507
14.5114
13.6683
13.1895
12.6944
12.1282
11.5029
10.8387
10.1516
9.45244
0.0
0.0
0.0
0.0
11.0372
12.0661
12.4003
12.2721
11.8926
11.3692
10.7627
10.109
9.4293
0.0
0.0
0.0
0.0
9.25318
11.0439
11.8033
11.9351
11.7026
11.2615
10.7016
10.0747
9.41047
0.0
0.0
0.0
0.0
8.46622
10.5293
11.4904
11.753
11.5984
11.2021
10.6679
10.0557
9.39999
22.5442
20.9963
19.4837
18.0411
16.694
15.461
14.3488
13.3493
12.4447
11.6132
10.8341
10.0905
9.36973
22.5184
21.0265
19.5663
18.1677
16.8524
15.6375
14.529
13.5207
12.5982
11.7439
10.9411
10.1753
9.43506
22.4975
21.0064
19.5596
18.1764
16.8715
15.6685
14.573
13.575
12.6574
11.8028
10.9954
10.2226
9.47457
22.4693
20.9155
19.4547
18.0656
16.7445
15.5491
14.4824
13.519
12.6313
11.7979
11.0034
10.2371
9.4912
22.4094
20.6976
19.2347
17.8349
16.433
15.2451
14.2421
13.3525
12.5266
11.7379
10.973
10.2248
9.48937
22.2244
20.1907
18.8969
17.5383
15.8225
14.6731
13.8213
13.0737
12.3525
11.634
10.9139
10.1934
9.47447
21.4809
18.8964
18.5507
17.254
14.5127
13.6689
13.1898
12.6945
12.1283
11.503
10.8388
10.1517
9.45245
0.0
0.0
0.0
0.0
11.0383
12.0669
12.4007
12.2724
11.8927
11.3692
10.7627
10.109
9.42931
0.0
0.0
0.0
0.0
9.25547
11.045
11.8039
11.9354
11.7027
11.2616
10.7017
10.0747
9.41048
0.0
0.0
0.0
0.0
8.46899
10.5307
11.4911
11.7533
11.5985
11.2022
10.668
10.0558
9.4
22.5423
21.0088
19.5087
18.076
16.7355
15.5054
14.3924
13.3892
12.4791
11.6414
10.8564
10.1075
9.38226
22.517
21.0369
19.5869
18.1962
16.8862
15.6736
14.5644
13.553
12.6261
11.7669
10.9593
10.1892
9.44546
22.4975
21.0191
19.5824
18.2068
16.9072
15.7058
14.6085
13.6065
12.6839
11.8241
11.0119
10.235
9.48369
22.4729
20.9363
19.4872
18.1068
16.7928
15.5983
14.527
13.5563
12.6609
11.8204
11.0201
10.2491
9.49972
22.4221
20.7352
19.286
17.8978
16.5104
15.3217
14.3073
13.403
12.5638
11.7644
10.9914
10.2374
9.49782
22.261
20.2535
18.9765
17.6343
15.9599
14.8033
13.9232
13.1463
12.4019
11.6668
10.9353
10.2072
9.4832
21.5762
18.9548
18.659
17.3961
14.7787
13.8953
13.3488
12.7983
12.1938
11.5438
10.8639
10.167
9.46165
0.0
0.0
0.0
0.0
11.6112
12.4413
12.6319
12.4114
11.9755
11.4182
10.7916
10.1259
9.43901
0.0
0.0
0.0
0.0
9.97753
11.5139
12.0893
12.1026
11.7993
11.3171
10.7336
10.0929
9.42059
0.0
0.0
0.0
0.0
9.25673
11.0459
11.8042
11.9354
11.7026
11.2614
10.7015
10.0746
9.41033
22.5375
21.0305
19.5536
18.139
16.8108
15.5862
14.4719
13.4621
12.5421
11.6933
10.8973
10.1388
9.40546
22.5133
21.0551
19.6238
18.2477
16.9475
15.7392
14.6289
13.6121
12.6772
11.8092
10.9929
10.215
9.46465
22.4963
21.0416
19.6232
18.2613
16.9714
15.7733
14.6731
13.6639
12.7322
11.863
11.0421
10.2578
9.50042
22.4779
20.9748
19.5455
18.18
16.8793
15.6869
14.6076
13.6239
12.7145
11.8614
11.0505
10.2711
9.51525
22.4447
20.8122
19.3806
18.0085
16.6495
15.4602
14.4249
13.4943
12.6311
11.8124
11.0249
10.2603
9.51314
22.3466
20.4169
19.1336
17.8035
16.2126
15.0425
14.1086
13.2778
12.4913
11.7262
10.9741
10.2322
9.49898
21.9365
19.272
18.9254
17.7511
15.2921
14.3259
13.6435
12.9874
12.3125
11.6176
10.9094
10.1948
9.47826
0.0
0.0
0.0
0.0
12.7668
13.1779
13.0693
12.6674
12.1259
11.507
10.844
10.1565
9.45654
0.0
0.0
0.0
0.0
11.6159
12.4425
12.6321
12.4114
11.9753
11.418
10.7914
10.1258
9.43887
0.0
0.0
0.0
0.0
11.0436
12.0686
12.4011
12.2722
11.8924
11.3688
10.7624
10.1087
9.42901
22.5293
21.0568
19.6098
18.2189
16.9068
15.6897
14.5743
13.5563
12.6238
11.7607
10.9508
10.1797
9.43589
22.5068
21.077
19.67
18.3129
17.0256
15.8231
14.7116
13.6882
12.7433
11.8639
11.0364
10.2485
9.48965
22.4926
21.0687
19.6736
18.3292
17.0519
15.8583
14.7548
13.7369
12.7939
11.9128
11.081
10.2871
9.52193
22.4802
21.0222
19.6165
18.2685
16.9855
15.7966
14.708
13.7086
12.7821
11.9133
11.089
10.299
9.53493
22.4633
20.9158
19.4925
18.1331
16.818
15.6301
14.5699
13.6075
12.715
11.8725
11.0669
10.289
9.53229
22.427
20.6952
19.3025
17.9461
16.5272
15.3404
14.3372
13.44
12.6021
11.8002
11.0226
10.2633
9.51853
22.3143
20.2243
19.0803
17.7976
16.0551
14.9006
14.0142
13.2213
12.4594
11.7093
10.9662
10.2293
9.49874
21.9799
19.3031
18.9346
17.7399
15.2897
14.3253
13.6432
12.9871
12.3123
11.6174
10.9092
10.1946
9.47812
21.6343
18.9936
18.6741
17.3925
14.7789
13.8954
13.3486
12.7978
12.1933
11.5433
10.8635
10.1667
9.46136
21.5454
18.9389
18.5712
17.259
14.5152
13.6697
13.1896
12.694
12.1276
11.5023
10.8382
10.1512
9.45202
22.5174
21.0821
19.6679
18.3029
17.0085
15.7999
14.6837
13.6575
12.7121
11.834
11.0091
10.2245
9.46931
22.4975
21.098
19.7174
18.3808
17.1076
15.9117
14.7993
13.7693
12.814
11.9227
11.0833
10.2846
9.51665
22.4859
21.0941
19.7241
18.3984
17.1342
15.9458
14.8395
13.813
12.8585
11.9652
11.1219
10.318
9.54457
22.4777
21.0646
19.6855
18.3565
17.09
15.9052
14.8086
13.7944
12.8512
11.9665
11.1286
10.3276
9.55501
22.4697
21.0008
19.5995
18.2571
16.9744
15.7901
14.71
13.7192
12.799
11.9331
11.1092
10.3177
9.55127
22.4578
20.887
19.4674
18.1105
16.7864
15.5998
14.5484
13.5959
12.7111
11.8737
11.0708
10.2941
9.53751
22.4308
20.6976
19.303
17.9451
16.5262
15.3396
14.3366
13.4396
12.6018
11.7999
11.0224
10.2632
9.5184
22.3673
20.4305
19.1384
17.8014
16.2108
15.0413
14.1076
13.2771
12.4907
11.7257
10.9737
10.2319
9.49871
22.2917
20.2735
18.9852
17.6348
15.9592
14.8023
13.9222
13.1454
12.4011
11.6661
10.9347
10.2067
9.48279
22.2606
20.2144
18.9089
17.542
15.8232
14.6725
13.8203
13.0725
12.3514
11.633
10.9131
10.1928
9.47392
22.5027
21.1026
19.7195
18.3793
17.102
15.9018
14.7855
13.7523
12.7952
11.9033
11.0646
10.2673
9.50134
22.486
21.1147
19.7589
18.4417
17.1818
15.9921
14.8794
13.8436
12.8791
11.977
11.1267
10.3181
9.54165
22.4769
21.1134
19.7664
18.4581
17.2056
16.022
14.9136
13.88
12.9156
12.0115
11.158
10.3452
9.56437
22.4717
21.0954
19.7414
18.4299
17.1763
15.995
14.8926
13.8667
12.9096
12.0114
11.1618
10.3513
9.57138
22.468
21.0576
19.6837
18.3598
17.0968
15.9152
14.8218
13.8099
12.8677
11.9826
11.1434
10.3404
9.5657
22.4644
20.997
19.5966
18.2549
16.9728
15.7889
14.7092
13.7186
12.7985
11.9328
11.109
10.3176
9.55116
22.4585
20.912
19.4891
18.1298
16.8154
15.6282
14.5685
13.6065
12.7142
11.8719
11.0664
10.2886
9.53204
22.4456
20.8122
19.3787
18.0052
16.6465
15.4578
14.4231
13.4929
12.63
11.8115
11.0242
10.2598
9.51275
22.4284
20.7388
19.2863
17.8956
16.5078
15.3193
14.3053
13.4014
12.5624
11.7633
10.9906
10.2368
9.49729
22.4192
20.7036
19.2367
17.834
16.431
15.2428
14.24
13.3506
12.525
11.7366
10.9719
10.224
9.4887
22.4867
21.1161
19.7594
18.4401
17.1774
15.9846
14.8688
13.8303
12.8639
11.961
11.1109
10.3032
9.52828
22.4737
21.1252
19.7893
18.4879
17.2387
16.0543
14.9416
13.9015
12.9299
12.0193
11.1605
10.3441
9.56096
22.467
21.1246
19.7952
18.5001
17.2562
16.0761
14.9663
13.9276
12.956
12.0441
11.183
10.3637
9.57757
22.4639
21.1128
19.7773
18.4786
17.2332
16.054
14.9476
13.9137
12.9471
12.0396
11.1819
10.3649
9.58006
22.4626
21.089
19.7369
18.4268
17.1742
15.9936
14.8916
13.866
12.9092
12.0111
11.1617
10.3512
9.57129
22.4625
21.0537
19.6778
18.351
17.0862
15.9026
14.8068
13.7932
12.8504
11.9659
11.1282
10.3273
9.5548
22.4624
21.0093
19.6071
18.2616
16.9805
15.7931
14.7055
13.7068
12.7809
11.9124
11.0884
10.2985
9.53459
22.4609
20.9623
19.5361
18.1727
16.8738
15.6829
14.6047
13.6217
12.713
11.8602
11.0496
10.2705
9.51477
22.458
20.9252
19.4785
18.0998
16.7873
15.5941
14.5238
13.5539
12.659
11.819
11.019
10.2483
9.49909
22.4561
20.9057
19.4469
18.0592
16.7392
15.5449
14.479
13.5164
12.6293
11.7963
11.0022
10.2361
9.49043
22.472
21.1228
19.7853
18.4815
17.2294
16.0422
14.927
13.8851
12.9125
12.0019
11.1439
10.3288
9.54748
22.4629
21.1291
19.8062
18.5149
17.2725
16.0914
14.9786
13.9358
12.9597
12.0439
11.1799
10.3587
9.57157
22.4585
21.1276
19.8076
18.5193
17.2795
16.1007
14.9897
13.9481
12.9725
12.0565
11.1918
10.3694
9.58086
22.4568
21.1176
19.7905
18.497
17.2542
16.0748
14.9655
13.9271
12.9557
12.0439
11.1829
10.3636
9.57752
22.457
21.0996
19.757
18.4518
17.2015
16.0192
14.9118
13.8789
12.9148
12.0111
11.1577
10.345
9.56423
22.4585
21.0749
19.7108
18.3894
17.1282
15.9418
14.8368
13.8113
12.8573
11.9644
11.1213
10.3176
9.54431
22.4607
21.0462
19.6579
18.3184
17.0445
15.8533
14.7514
13.7346
12.7923
11.9117
11.0802
10.2866
9.52153
22.4626
21.0178
19.6065
18.2496
16.9633
15.7676
14.6691
13.6611
12.7302
11.8615
11.0411
10.2571
9.49987
22.4639
20.9952
19.5656
18.1949
16.8988
15.6998
14.6043
13.6034
12.6817
11.8224
11.0107
10.2341
9.483
22.4646
20.9831
19.5432
18.1647
16.8632
15.6624
14.5685
13.5717
12.655
11.8009
10.994
10.2215
9.47374
22.4616
21.1247
19.798
18.5028
17.2567
16.0727
14.9579
13.9142
12.9383
12.0235
11.1612
10.3422
9.55745
22.4565
21.1278
19.8088
18.5203
17.2794
16.0988
14.9856
13.9416
12.964
12.0467
11.1813
10.359
9.57113
22.4542
21.1235
19.8026
18.5127
17.2711
16.0905
14.9781
13.9355
12.9596
12.0438
11.1799
10.3587
9.57157
22.4539
21.1119
19.7807
18.4824
17.2352
16.0522
14.9403
13.9007
12.9294
12.019
11.1604
10.344
9.56091
22.4552
21.0939
19.745
18.4327
17.1759
15.9884
14.8771
13.8421
12.8782
11.9764
11.1264
10.3178
9.54151
22.4578
21.0709
19.6993
18.3688
17.0998
15.9066
14.796
13.7671
12.8126
11.9218
11.0827
10.2842
9.51639
22.4612
21.0456
19.6489
18.2988
17.0163
15.8169
14.7075
13.6855
12.7415
11.8627
11.0356
10.2479
9.48924
22.4646
21.0216
19.6011
18.2325
16.9374
15.7324
14.6242
13.609
12.675
11.8077
10.9918
10.2142
9.46409
22.4674
21.0028
19.5638
18.1807
16.8757
15.6664
14.5594
13.5495
12.6236
11.7652
10.958
10.1883
9.44475
22.4692
20.9926
19.5434
18.1522
16.8418
15.6302
14.5239
13.517
12.5955
11.7419
10.9396
10.1741
9.4342
22.4587
21.1239
19.7989
18.5047
17.2592
16.0754
14.9604
13.9162
12.9397
12.0243
11.1616
10.3421
9.55712
22.458
21.1227
19.7969
18.5022
17.2565
16.0726
14.9579
13.9142
12.9383
12.0235
11.1613
10.3422
9.5575
22.4583
21.1143
19.7802
18.4784
17.2277
16.0413
14.9266
13.8849
12.9124
12.0018
11.1439
10.3288
9.54753
22.4599
21.0988
19.7485
18.4334
17.1733
15.9822
14.8674
13.8295
12.8635
11.9608
11.1108
10.3032
9.52829
22.4629
21.0764
19.7027
18.3687
17.0954
15.8977
14.783
13.7508
12.7943
11.9028
11.0643
10.2672
9.50126
22.4671
21.0488
19.6463
18.289
16.9997
15.7943
14.6802
13.6553
12.7107
11.8331
11.0086
10.2242
9.4691
22.4721
21.0187
19.585
18.203
16.8966
15.6831
14.57
13.5535
12.622
11.7595
10.95
10.1792
9.43554
22.4768
20.9903