# vtk DataFile Version 2.0
I need something to put here
ASCII

DATASET STRUCTURED_GRID
DIMENSIONS 14 11 21
POINTS 3234 float
2.700000 1.000000 0.000000
2.800000 1.000000 0.000000
2.900000 1.000000 0.000000
3.000000 1.000000 0.000000
3.100000 1.000000 0.000000
3.200000 1.000000 0.000000
3.300000 1.000000 0.000000
3.400000 1.000000 0.000000
3.500000 1.000000 0.000000
3.600000 1.000000 0.000000
3.700000 1.000000 0.000000
3.800000 1.000000 0.000000
3.900000 1.000000 0.000000
4.000000 1.000000 0.000000
2.700000 1.100000 0.000000
2.800000 1.100000 0.000000
2.900000 1.100000 0.000000
3.000000 1.100000 0.000000
3.100000 1.100000 0.000000
3.200000 1.100000 0.000000
3.300000 1.100000 0.000000
3.400000 1.100000 0.000000
3.500000 1.100000 0.000000
3.600000 1.100000 0.000000
3.700000 1.100000 0.000000
3.800000 1.100000 0.000000
3.900000 1.100000 0.000000
4.000000 1.100000 0.000000
2.700000 1.200000 0.000000
2.800000 1.200000 0.000000
2.900000 1.200000 0.000000
3.000000 1.200000 0.000000
3.100000 1.200000 0.000000
3.200000 1.200000 0.000000
3.300000 1.200000 0.000000
3.400000 1.200000 0.000000
3.500000 1.200000 0.000000
3.600000 1.200000 0.000000
3.700000 1.200000 0.000000
3.800000 1.200000 0.000000
3.900000 1.200000 0.000000
4.000000 1.200000 0.000000
2.700000 1.300000 0.000000
2.800000 1.300000 0.000000
2.900000 1.300000 0.000000
3.000000 1.300000 0.000000
3.100000 1.300000 0.000000
3.200000 1.300000 0.000000
3.300000 1.300000 0.000000
3.400000 1.300000 0.000000
3.500000 1.300000 0.000000
3.600000 1.300000 0.000000
3.700000 1.300000 0.000000
3.800000 1.300000 0.000000
3.900000 1.300000 0.000000
4.000000 1.300000 0.000000
2.700000 1.400000 0.000000
2.800000 1.400000 0.000000
2.900000 1.400000 0.000000
3.000000 1.400000 0.000000
3.100000 1.400000 0.000000
3.200000 1.400000 0.000000
3.300000 1.400000 0.000000
3.400000 1.400000 0.000000
3.500000 1.400000 0.000000
3.600000 1.400000 0.000000
3.700000 1.400000 0.000000
3.800000 1.400000 0.000000
3.900000 1.400000 0.000000
4.000000 1.400000 0.000000
2.700000 1.500000 0.000000
2.800000 1.500000 0.000000
2.900000 1.500000 0.000000
3.000000 1.500000 0.000000
3.100000 1.500000 0.000000
3.200000 1.500000 0.000000
3.300000 1.500000 0.000000
3.400000 1.500000 0.000000
3.500000 1.500000 0.000000
3.600000 1.500000 0.000000
3.700000 1.500000 0.000000
3.800000 1.500000 0.000000
3.900000 1.500000 0.000000
4.000000 1.500000 0.000000
2.700000 1.600000 0.000000
2.800000 1.600000 0.000000
2.900000 1.600000 0.000000
3.000000 1.600000 0.000000
3.100000 1.600000 0.000000
3.200000 1.600000 0.000000
3.300000 1.600000 0.000000
3.400000 1.600000 0.000000
3.500000 1.600000 0.000000
3.600000 1.600000 0.000000
3.700000 1.600000 0.000000
3.800000 1.600000 0.000000
3.900000 1.600000 0.000000
4.000000 1.600000 0.000000
2.700000 1.700000 0.000000
2.800000 1.700000 0.000000
2.900000 1.700000 0.000000
3.000000 1.700000 0.000000
3.100000 1.700000 0.000000
3.200000 1.700000 0.000000
3.300000 1.700000 0.000000
3.400000 1.700000 0.000000
3.500000 1.700000 0.000000
3.600000 1.700000 0.000000
3.700000 1.700000 0.000000
3.800000 1.700000 0.000000
3.900000 1.700000 0.000000
4.000000 1.700000 0.000000
2.700000 1.800000 0.000000
2.800000 1.800000 0.000000
2.900000 1.800000 0.000000
3.000000 1.800000 0.000000
3.100000 1.800000 0.000000
3.200000 1.800000 0.000000
3.300000 1.800000 0.000000
3.400000 1.800000 0.000000
3.500000 1.800000 0.000000
3.600000 1.800000 0.000000
3.700000 1.800000 0.000000
3.800000 1.800000 0.000000
3.900000 1.800000 0.000000
4.000000 1.800000 0.000000
2.700000 1.900000 0.000000
2.800000 1.900000 0.000000
2.900000 1.900000 0.000000
3.000000 1.900000 0.000000
3.100000 1.900000 0.000000
3.200000 1.900000 0.000000
3.300000 1.900000 0.000000
3.400000 1.900000 0.000000
3.500000 1.900000 0.000000
3.600000 1.900000 0.000000
3.700000 1.900000 0.000000
3.800000 1.900000 0.000000
3.900000 1.900000 0.000000
4.000000 1.900000 0.000000
2.700000 2.000000 0.000000
2.800000 2.000000 0.000000
2.900000 2.000000 0.000000
3.000000 2.000000 0.000000
3.100000 2.000000 0.000000
3.200000 2.000000 0.000000
3.300000 2.000000 0.000000
3.400000 2.000000 0.000000
3.500000 2.000000 0.000000
3.600000 2.000000 0.000000
3.700000 2.000000 0.000000
3.800000 2.000000 0.000000
3.900000 2.000000 0.000000
4.000000 2.000000 0.000000
2.700000 1.000000 0.100000
2.800000 1.000000 0.100000
2.900000 1.000000 0.100000
3.000000 1.000000 0.100000
3.100000 1.000000 0.100000
3.200000 1.000000 0.100000
3.300000 1.000000 0.100000
3.400000 1.000000 0.100000
3.500000 1.000000 0.100000
3.600000 1.000000 0.100000
3.700000 1.000000 0.100000
3.800000 1.000000 0.100000
3.900000 1.000000 0.100000
4.000000 1.000000 0.100000
2.700000 1.100000 0.100000
2.800000 1.100000 0.100000
2.900000 1.100000 0.100000
3.000000 1.100000 0.100000
3.100000 1.100000 0.100000
3.200000 1.100000 0.100000
3.300000 1.100000 0.100000
3.400000 1.100000 0.100000
3.500000 1.100000 0.100000
3.600000 1.100000 0.100000
3.700000 1.100000 0.100000
3.800000 1.100000 0.100000
3.900000 1.100000 0.100000
4.000000 1.100000 0.100000
2.700000 1.200000 0.100000
2.800000 1.200000 0.100000
2.900000 1.200000 0.100000
3.000000 1.200000 0.100000
3.100000 1.200000 0.100000
3.200000 1.200000 0.100000
3.300000 1.200000 0.100000
3.400000 1.200000 0.100000
3.500000 1.200000 0.100000
3.600000 1.200000 0.100000
3.700000 1.200000 0.100000
3.800000 1.200000 0.100000
3.900000 1.200000 0.100000
4.000000 1.200000 0.100000
2.700000 1.300000 0.100000
2.800000 1.300000 0.100000
2.900000 1.300000 0.100000
3.000000 1.300000 0.100000
3.100000 1.300000 0.100000
3.200000 1.300000 0.100000
3.300000 1.300000 0.100000
3.400000 1.300000 0.100000
3.500000 1.300000 0.100000
3.600000 1.300000 0.100000
3.700000 1.300000 0.100000
3.800000 1.300000 0.100000
3.900000 1.300000 0.100000
4.000000 1.300000 0.100000
2.700000 1.400000 0.100000
2.800000 1.400000 0.100000
2.900000 1.400000 0.100000
3.000000 1.400000 0.100000
3.100000 1.400000 0.100000
3.200000 1.400000 0.100000
3.300000 1.400000 0.100000
3.400000 1.400000 0.100000
3.500000 1.400000 0.100000
3.600000 1.400000 0.100000
3.700000 1.400000 0.100000
3.800000 1.400000 0.100000
3.900000 1.400000 0.100000
4.000000 1.400000 0.100000
2.700000 1.500000 0.100000
2.800000 1.500000 0.100000
2.900000 1.500000 0.100000
3.000000 1.500000 0.100000
3.100000 1.500000 0.100000
3.200000 1.500000 0.100000
3.300000 1.500000 0.100000
3.400000 1.500000 0.100000
3.500000 1.500000 0.100000
3.600000 1.500000 0.100000
3.700000 1.500000 0.100000
3.800000 1.500000 0.100000
3.900000 1.500000 0.100000
4.000000 1.500000 0.100000
2.700000 1.600000 0.100000
2.800000 1.600000 0.100000
2.900000 1.600000 0.100000
3.000000 1.600000 0.100000
3.100000 1.600000 0.100000
3.200000 1.600000 0.100000
3.300000 1.600000 0.100000
3.400000 1.600000 0.100000
3.500000 1.600000 0.100000
3.600000 1.600000 0.100000
3.700000 1.600000 0.100000
3.800000 1.600000 0.100000
3.900000 1.600000 0.100000
4.000000 1.600000 0.100000
2.700000 1.700000 0.100000
2.800000 1.700000 0.100000
2.900000 1.700000 0.100000
3.000000 1.700000 0.100000
3.100000 1.700000 0.100000
3.200000 1.700000 0.100000
3.300000 1.700000 0.100000
3.400000 1.700000 0.100000
3.500000 1.700000 0.100000
3.600000 1.700000 0.100000
3.700000 1.700000 0.100000
3.800000 1.700000 0.100000
3.900000 1.700000 0.100000
4.000000 1.700000 0.100000
2.700000 1.800000 0.100000
2.800000 1.800000 0.100000
2.900000 1.800000 0.100000
3.000000 1.800000 0.100000
3.100000 1.800000 0.100000
3.200000 1.800000 0.100000
3.300000 1.800000 0.100000
3.400000 1.800000 0.100000
3.500000 1.800000 0.100000
3.600000 1.800000 0.100000
3.700000 1.800000 0.100000
3.800000 1.800000 0.100000
3.900000 1.800000 0.100000
4.000000 1.800000 0.100000
2.700000 1.900000 0.100000
2.800000 1.900000 0.100000
2.900000 1.900000 0.100000
3.000000 1.900000 0.100000
3.100000 1.900000 0.100000
3.200000 1.900000 0.100000
3.300000 1.900000 0.100000
3.400000 1.900000 0.100000
3.500000 1.900000 0.100000
3.600000 1.900000 0.100000
3.700000 1.900000 0.100000
3.800000 1.900000 0.100000
3.900000 1.900000 0.100000
4.000000 1.900000 0.100000
2.700000 2.000000 0.100000
2.800000 2.000000 0.100000
2.900000 2.000000 0.100000
3.000000 2.000000 0.100000
3.100000 2.000000 0.100000
3.200000 2.000000 0.100000
3.300000 2.000000 0.100000
3.400000 2.000000 0.100000
3.500000 2.000000 0.100000
3.600000 2.000000 0.100000
3.700000 2.000000 0.100000
3.800000 2.000000 0.100000
3.900000 2.000000 0.100000
4.000000 2.000000 0.100000
2.700000 1.000000 0.200000
2.800000 1.000000 0.200000
2.900000 1.000000 0.200000
3.000000 1.000000 0.200000
3.100000 1.000000 0.200000
3.200000 1.000000 0.200000
3.300000 1.000000 0.200000
3.400000 1.000000 0.200000
3.500000 1.000000 0.200000
3.600000 1.000000 0.200000
3.700000 1.000000 0.200000
3.800000 1.000000 0.200000
3.900000 1.000000 0.200000
4.000000 1.000000 0.200000
2.700000 1.100000 0.200000
2.800000 1.100000 0.200000
2.900000 1.100000 0.200000
3.000000 1.100000 0.200000
3.100000 1.100000 0.200000
3.200000 1.100000 0.200000
3.300000 1.100000 0.200000
3.400000 1.100000 0.200000
3.500000 1.100000 0.200000
3.600000 1.100000 0.200000
3.700000 1.100000 0.200000
3.800000 1.100000 0.200000
3.900000 1.100000 0.200000
4.000000 1.100000 0.200000
2.700000 1.200000 0.200000
2.800000 1.200000 0.200000
2.900000 1.200000 0.200000
3.000000 1.200000 0.200000
3.100000 1.200000 0.200000
3.200000 1.200000 0.200000
3.300000 1.200000 0.200000
3.400000 1.200000 0.200000
3.500000 1.200000 0.200000
3.600000 1.200000 0.200000
3.700000 1.200000 0.200000
3.800000 1.200000 0.200000
3.900000 1.200000 0.200000
4.000000 1.200000 0.200000
2.700000 1.300000 0.200000
2.800000 1.300000 0.200000
2.900000 1.300000 0.200000
3.000000 1.300000 0.200000
3.100000 1.300000 0.200000
3.200000 1.300000 0.200000
3.300000 1.300000 0.200000
3.400000 1.300000 0.200000
3.500000 1.300000 0.200000
3.600000 1.300000 0.200000
3.700000 1.300000 0.200000
3.800000 1.300000 0.200000
3.900000 1.300000 0.200000
4.000000 1.300000 0.200000
2.700000 1.400000 0.200000
[...]
CELL_DATA 2600
SCALARS pressure float 1
LOOKUP_TABLE default
8.62711
7.93294
7.2418
6.55211
5.86297
5.1739
4.48465
3.79514
3.10533
2.41526
1.725
1.03468
0.344541
8.6336
7.9375
7.24493
6.55422
5.86436
5.17479
4.48521
3.79547
3.10552
2.41537
1.72505
1.03469
0.344531
8.64565
7.94598
7.25077
6.55816
5.86696
5.17647
4.48626
3.79611
3.10589
2.41557
1.72515
1.03472
0.344516
8.66152
7.95717
7.2585
6.56337
5.8704
5.17869
4.48765
3.79695
3.10638
2.41584
1.72528
1.03477
0.344505
8.67899
7.96953
7.26704
6.56915
5.87422
5.18115
4.4892
3.79789
3.10693
2.41614
1.72544
1.03483
0.344508
8.69579
7.98143
7.27528
6.57472
5.87791
5.18353
4.49069
3.7988
3.10746
2.41644
1.7256
1.03492
0.344535
8.70995
7.99147
7.28222
6.57942
5.88101
5.18552
4.49193
3.79954
3.1079
2.41669
1.72574
1.03501
0.34459
8.72002
7.99859
7.28714
6.58273
5.88317
5.18689
4.49278
3.80004
3.10818
2.41685
1.72585
1.0351
0.344672
8.72517
8.00218
7.28957
6.58432
5.88418
5.18751
4.49313
3.80023
3.10827
2.41689
1.72589
1.03516
0.344763
8.72476
8.00175
7.28915
6.58394
5.88386
5.18724
4.49291
3.80006
3.10814
2.41679
1.72582
1.03514
0.344807
8.66259
7.95919
7.26092
6.56585
5.87272
5.18074
4.48941
3.79842
3.10759
2.41684
1.72613
1.03549
0.344972
8.66802
7.96302
7.26356
6.56762
5.87389
5.18149
4.48987
3.79869
3.10774
2.41691
1.72616
1.03549
0.344948
8.67807
7.97012
7.26845
6.57093
5.87607
5.18289
4.49074
3.79921
3.10804
2.41706
1.72622
1.03549
0.344906
8.69118
7.97938
7.27485
6.57524
5.87891
5.1847
4.49187
3.79988
3.10841
2.41726
1.7263
1.0355
0.344858
8.70534
7.98939
7.28175
6.57988
5.88195
5.18664
4.49306
3.80058
3.1088
2.41746
1.72638
1.03551
0.344816
8.71843
7.9986
7.28808
6.58411
5.8847
5.18837
4.4941
3.80118
3.10913
2.41761
1.72644
1.03552
0.34479
8.72846
8.00559
7.29281
6.58722
5.88667
5.18957
4.4948
3.80155
3.1093
2.41768
1.72646
1.03552
0.344789
8.73377
8.00914
7.29508
6.5886
5.88745
5.18997
4.49495
3.80157
3.10925
2.4176
1.72639
1.03549
0.344809
8.73304
8.00828
7.2942
6.58777
5.88671
5.18934
4.49443
3.80116
3.10892
2.41735
1.72622
1.03539
0.344829
8.72513
8.00215
7.28955
6.58431
5.88417
5.1875
4.49313
3.80023
3.10827
2.41689
1.72589
1.03517
0.344764
8.68565
7.97726
7.27477
6.57628
5.88045
5.1864
4.4935
3.80135
3.10968
2.41832
1.72717
1.03617
0.34528
8.69036
7.98053
7.27699
6.57775
5.8814
5.18699
4.49385
3.80155
3.10978
2.41836
1.72718
1.03615
0.345238
8.699
7.98655
7.28108
6.58045
5.88315
5.18808
4.4945
3.80191
3.10997
2.41844
1.72719
1.03612
0.345163
8.71011
7.99427
7.28632
6.58392
5.88536
5.18945
4.49531
3.80236
3.11019
2.41853
1.72719
1.03607
0.34507
8.72177
8.00234
7.29176
6.58748
5.88762
5.19082
4.4961
3.80278
3.11038
2.41858
1.72717
1.03601
0.344978
8.73187
8.00925
7.29633
6.59041
5.88942
5.19187
4.49666
3.80304
3.11046
2.41857
1.72711
1.03594
0.344902
8.73838
8.01351
7.29901
6.59198
5.89027
5.19226
4.49677
3.803
3.11035
2.41843
1.72699
1.03584
0.344855
8.73949
8.01383
7.29883
6.59155
5.88973
5.1917
4.49625
3.80254
3.10996
2.41812
1.72676
1.03571
0.344833
8.73372
8.0091
7.29505
6.58858
5.88744
5.18995
4.49495
3.80157
3.10925
2.4176
1.72639
1.03548
0.344809
8.71993
7.99852
7.28709
6.58269
5.88315
5.18688
4.49276
3.80004
3.10818
2.41685
1.72585
1.0351
0.344673
8.69749
7.98776
7.28361
6.58345
5.88611
5.19076
4.4968
3.80382
3.1115
2.41965
1.72812
1.03679
0.345599
8.70174
7.99063
7.28549
6.58464
5.88684
5.19118
4.49703
3.80393
3.11154
2.41965
1.72809
1.03675
0.345538
8.70949
7.99583
7.2889
6.58681
5.88816
5.19196
4.49745
3.80412
3.1116
2.41964
1.72803
1.03667
0.345427
8.71927
8.00238
7.29316
6.58949
5.88978
5.19288
4.49793
3.80433
3.11165
2.4196
1.72795
1.03656
0.345287
8.72917
8.00893
7.29735
6.59206
5.89128
5.19368
4.4983
3.80444
3.11162
2.4195
1.72782
1.03642
0.345142
8.73702
8.01395
7.30041
6.59381
5.89218
5.19405
4.49836
3.80434
3.11145
2.4193
1.72764
1.03626
0.345014
8.74072
8.01592
7.30127
6.594
5.89198
5.19367
4.49791
3.8039
3.11104
2.41896
1.72737
1.03608
0.344918
8.73835
8.01349
7.29898
6.59196
5.89025
5.19224
4.49676
3.80299
3.11034
2.41843
1.72698
1.03584
0.344854
8.72839
8.00553
7.29275
6.58717
5.88663
5.18954
4.49478
3.80154
3.10929
2.41767
1.72645
1.03551
0.344789
8.7098
7.99135
7.28213
6.57935
5.88095
5.18548
4.4919
3.79953
3.10788
2.41668
1.72574
1.03501
0.34459
8.70023
7.99208
7.28829
6.58785
5.88994
5.19395
4.49937
3.80583
3.11304
2.42081
1.72896
1.03738
0.345961
8.70423
7.99464
7.28988
6.58879
5.89047
5.19421
4.49947
3.80584
3.11301
2.42076
1.7289
1.03731
0.34588
8.71148
7.99925
7.29272
6.59046
5.89139
5.19467
4.49965
3.80586
3.11295
2.42065
1.72878
1.03718
0.345733
8.72046
8.00492
7.29616
6.59245
5.89244
5.19514
4.49979
3.80581
3.11281
2.42048
1.7286
1.037
0.345544
8.72921
8.01029
7.29929
6.59413
5.89323
5.1954
4.49974
3.80562
3.11255
2.42021
1.72835
1.03678
0.345344
8.73547
8.01382
7.30106
6.59482
5.8933
5.19513
4.49932
3.80516
3.11212
2.41983
1.72804
1.03654
0.345161
8.73701
8.01393
7.30039
6.59379
5.89216
5.19403
4.49835
3.80433
3.11144
2.41929
1.72763
1.03626
0.345013
8.73184
8.0092
7.29628
6.59036
5.88938
5.19183
4.49663
3.80302
3.11045
2.41856
1.72711
1.03593
0.344901
8.71834
7.99851
7.28799
6.58404
5.88464
5.18832
4.49407
3.80116
3.10911
2.4176
1.72643
1.03551
0.344789
8.69562
7.98128
7.27515
6.57462
5.87783
5.18347
4.49064
3.79876
3.10744
2.41642
1.72559
1.03491
0.344534
8.69647
7.99192
7.28989
6.59015
5.89236
5.19618
4.5013
3.80742
3.11432
2.4218
1.72971
1.03793
0.346358
8.70037
7.99426
7.29123
6.59086
5.89269
5.19629
4.50128
3.80734
3.11422
2.4217
1.72961
1.03784
0.346258
8.70739
7.99843
7.29359
6.59209
5.89324
5.19644
4.50122
3.80718
3.11402
2.42149
1.72942
1.03766
0.346076
8.71596
8.00345
7.29635
6.59345
5.89376
5.1965
4.50103
3.80689
3.1137
2.42119
1.72914
1.03741
0.345839
8.72402
8.00793
7.29859
6.59435
5.8939
5.19623
4.50059
3.80639
3.11322
2.42076
1.72879
1.03711
0.345584
8.72921
8.01029
7.29928
6.59412
5.89321
5.19538
4.49973
3.8056
3.11254
2.42021
1.72835
1.03678
0.345343
8.72917
8.0089
7.29731
6.59202
5.89124
5.19365
4.49827
3.80442
3.11161
2.41948
1.72781
1.03641
0.345139
8.72174
8.00228
7.29169
6.58741
5.88756
5.19077
4.49606
3.80275
3.11036
2.41856
1.72716
1.036
0.344975
8.70524
7.98927
7.28164
6.57979
5.88186
5.18657
4.493
3.80054
3.10877
2.41743
1.72637
1.0355
0.344813
8.67879
7.96934
7.26688
6.56901
5.87411
5.18107
4.48913
3.79784
3.1069
2.41612
1.72542
1.03482
0.344506
8.68903
7.9891
7.28957
6.59105
5.89377
5.1977
4.50272
3.80866
3.11534
2.42262
1.73036
1.03843
0.346758
8.6929
7.99127
7.29069
6.59155
5.89392
5.19766
4.50259
3.80849
3.11518
2.42247
1.73022
1.03831
0.346642
8.69986
7.99511
7.29265
6.5924
5.89413
5.19754
4.50231
3.80816
3.11485
2.42218
1.72997
1.03809
0.346426
8.70827
7.99963
7.29482
6.59321
5.89418
5.19721
4.50182
3.80764
3.11436
2.42175
1.7296
1.03778
0.346145
8.71598
8.00344
7.29633
6.59343
5.89375
5.19648
4.50102
3.80688
3.11369
2.42118
1.72914
1.03741
0.345838
8.72049
8.00491
7.29613
6.59241
5.89241
5.19511
4.49976
3.80579
3.11279
2.42046
1.72859
1.03699
0.345542
8.71929
8.00235
7.29311
6.58943
5.88973
5.19283
4.49788
3.80429
3.11162
2.41957
1.72793
1.03655
0.345283
8.71009
7.9942
7.28623
6.58383
5.88528
5.18938
4.49525
3.80231
3.11015
2.4185
1.72717
1.03606
0.345066
8.69108
7.97925
7.27472
6.57512
5.8788
5.18461
4.49179
3.79982
3.10837
2.41723
1.72628
1.03548
0.344854
8.6613
7.95696
7.25831
6.56321
5.87027
5.17858
4.48757
3.79689
3.10634
2.4158
1.72526
1.03475
0.344501
8.68061
7.98531
7.28834
6.59117
5.89453
5.19869
4.50372
3.80957
3.11613
2.42327
1.73088
1.03885
0.347119
8.6845
7.98735
7.28929
6.5915
5.89452
5.19852
4.50349
3.80933
3.11591
2.42308
1.73071
1.03871
0.346987
8.69148
7.99095
7.29092
6.59202
5.89445
5.19817
4.50303
3.80887
3.11548
2.42271
1.7304
1.03845
0.346744
8.69987
7.99511
7.29263
6.59238
5.89411
5.19752
4.5023
3.80815
3.11484
2.42217
1.72996
1.03808
0.346425
8.70741
7.99842
7.29357
6.59206
5.8932
5.19641
4.50119
3.80716
3.114
2.42148
1.72941
1.03765
0.346073
8.71151
7.99924
7.29268
6.59041
5.89134
5.19462
4.4996
3.80582
3.11291
2.42063
1.72876
1.03717
0.345729
8.70951
7.9958
7.28883
6.58673
5.88809
5.19189
4.49739
3.80407
3.11156
2.41961
1.72801
1.03666
0.345422
8.69899
7.98647
7.28098
6.58035
5.88304
5.18799
4.49443
3.80185
3.10992
2.4184
1.72716
1.0361
0.345157
8.67797
7.96997
7.2683
6.57078
5.87594
5.18278
4.49065
3.79914
3.10798
2.41702
1.72619
1.03547
0.3449
8.64542
7.94575
7.25055
6.55796
5.8668
5.17633
4.48615
3.79602
3.10583
2.41552
1.72512
1.0347
0.34451
8.67359
7.98196
7.28706
6.591
5.8949
5.19929
4.50437
3.81018
3.11666
2.42372
1.73125
1.03916
0.347391
8.6775
7.98391
7.28788
6.5912
5.89479
5.19903
4.50407
3.80989
3.1164
2.42349
1.73106
1.039
0.347249
8.68451
7.98734
7.28928
6.59149
5.89451
5.19851
4.50348
3.80932
3.1159
2.42307
1.73071
1.03871
0.346986
8.69293
7.99126
7.29066
6.59152
5.89388
5.19762
4.50256
3.80847
3.11516
2.42245
1.73021
1.03831
0.346639
8.70041
7.99424
7.29119
6.59081
5.89263
5.19624
4.50123
3.8073
3.11419
2.42167
1.7296
1.03783
0.346254
8.70428
7.99462
7.28982
6.58872
5.8904
5.19414
4.49941
3.80579
3.11297
2.42072
1.72888
1.0373
0.345875
8.70178
7.99058
7.28541
6.58455
5.88674
5.1911
4.49696
3.80387
3.11149
2.41961
1.72806
1.03673
0.345531
8.69035
7.98045
7.27687
6.57762
5.88128
5.18688
4.49376
3.80147
3.10972
2.41832
1.72715
1.03613
0.345231
8.66793
7.96286
7.26338
6.56746
5.87374
5.18136
4.48976
3.7986
3.10768
2.41686
1.72612
1.03547
0.34494
8.63336
7.93724
7.24468
6.554
5.86417
5.17464
4.48508
3.79537
3.10545
2.41531
1.72501
1.03467
0.344523
8.66967
7.98006
7.2863
6.59085
5.89505
5.19958
4.5047
3.81049
3.11694
2.42395
1.73144
1.03932
0.347538
8.67359
7.98196
7.28705
6.59099
5.89488
5.19927
4.50436
3.81017
3.11665
2.42371
1.73124
1.03916
0.34739
8.68063
7.9853
7.28832
6.59114
5.89449
5.19866
4.50369
3.80955
3.11611
2.42325
1.73087
1.03885
0.347116
8.68906
7.98909
7.28953
6.591
5.89372
5.19765
4.50267
3.80862
3.11531
2.4226
1.73034
1.03842
0.346754
8.69653
7.99191
7.28985
6.59009
5.89229
5.19612
4.50124
3.80737
3.11428
2.42177
1.72969
1.03792
0.346352
8.70029
7.99206
7.28823
6.58776
5.88986
5.19386
4.49929
3.80576
3.11299
2.42077
1.72894
1.03736
0.345954
8.69754
7.98772
7.28352
6.58334
5.886
5.19066
4.49671
3.80374
3.11144
2.41961
1.72808
1.03677
0.345591
8.68566
7.97717
7.27464
6.57613
5.88032
5.18627
4.49339
3.80126
3.10961
2.41827
1.72713
1.03615
0.345271
8.66249
7.95902
7.26073
6.56566
5.87255
5.1806
4.48928
3.79832
3.10751
2.41678
1.72609
1.03546
0.344963
8.62686
7.93266
7.24153
6.55187
5.86276
5.17373
4.48451
3.79502
3.10524
2.4152
1.72496
1.03465
0.344532
8.66971
7.98009
7.28631
6.59086
5.89506
5.19958
4.5047
3.81049
3.11693
2.42395
1.73143
1.03932
0.347536
8.67362
7.98199
7.28707
6.591
5.89489
5.19928
4.50436
3.81017
3.11665
2.42371
1.73124
1.03916
0.347388
8.68066
7.98532
7.28833
6.59115
5.8945
5.19866
4.5037
3.80955
3.11611
2.42325
1.73086
1.03885
0.347114
8.68909
7.98911
7.28954
6.59101
5.89372
5.19765
4.50268
3.80862
3.11531
2.4226
1.73034
1.03842
0.346752
8.69655
7.99193
7.28986
6.5901
5.8923
5.19612
4.50124
3.80737
3.11428
2.42177
1.72969
1.03792
0.34635
8.70032
7.99208
7.28824
6.58777
5.88986
5.19387
4.49929
3.80576
3.11299
2.42077
1.72893
1.03736
0.345952
8.69757
7.98774
7.28354
6.58335
5.886
5.19066
4.49672
3.80374
3.11144
2.41961
1.72808
1.03677
0.34559
8.68568
7.97719
7.27465
6.57614
5.88032
5.18628
4.4934
3.80126
3.10961
2.41827
1.72713
1.03615
0.345271
8.66252
7.95905
7.26074
6.56567
5.87256
5.1806
4.48929
3.79832
3.10751
2.41678
1.72609
1.03546
0.344962
8.62689
7.93269
7.24154
6.55188
5.86277
5.17373
4.48451
3.79502
3.10524
2.4152
1.72496
1.03465
0.344531
8.67369
7.98203
7.28711
6.59103
5.89492
5.1993
4.50438
3.81018
3.11666
2.42371
1.73124
1.03916
0.347386
8.67759
7.98398
7.28793
6.59123
5.8948
5.19904
4.50408
3.80989
3.1164
2.42349
1.73106
1.039
0.347244
8.6846
7.9874
7.28932
6.59152
5.89452
5.19852
4.50348
3.80932
3.11589
2.42306
1.7307
1.03871
0.34698
8.69301
7.99132
7.2907
6.59155
5.8939
5.19764
4.50256
3.80847
3.11516
2.42245
1.73021
1.0383
0.346634
8.70049
7.9943
7.29123
6.59084
5.89265
5.19625
4.50124
3.80731
3.11419
2.42167
1.72959
1.03782
0.346249
8.70436
7.99468
7.28986
6.58875
5.89041
5.19415
4.49942
3.80579
3.11297
2.42072
1.72887
1.03729
0.345871
8.70186
7.99064
7.28545
6.58458
5.88676
5.19111
4.49697
3.80387
3.11149
2.41961
1.72806
1.03673
0.345528
8.69043
7.98051
7.27692
6.57765
5.8813
5.18689
4.49377
3.80148
3.10972
2.41832
1.72714
1.03613
0.345228
8.66801
7.96293
7.26343
6.56749
5.87376
5.18138
4.48977
3.79861
3.10768
2.41686
1.72612
1.03546
0.344938
8.63345
7.9373
7.24473
6.55403
5.86419
5.17465
4.48509
3.79538
3.10545
2.41531
1.72501
1.03467
0.344521
8.68077
7.98542
7.28842
6.59122
5.89455
5.1987
4.50373
3.80957
3.11612
2.42326
1.73087
1.03885
0.34711
8.68465
7.98745
7.28936
6.59155
5.89455
5.19854
4.5035
3.80933
3.1159
2.42307
1.73071
1.0387
0.346978
8.69162
7.99105
7.29099
6.59207
5.89448
5.19818
4.50304
3.80887
3.11547
2.4227
1.73039
1.03844
0.346735
8.7
7.9952
7.2927
6.59243
5.89414
5.19754
4.5023
3.80815
3.11484
2.42216
1.72995
1.03808
0.346417
8.70754
7.99852
7.29364
6.59211
5.89323
5.19643
4.5012
3.80716
3.114
2.42147
1.7294
1.03764
0.346066
8.71164
7.99933
7.29275
6.59046
5.89137
5.19463
4.49961
3.80582
3.11291
2.42062
1.72876
1.03716
0.345723
8.70964
7.99589
7.2889
6.58678
5.88812
5.19191
4.4974
3.80408
3.11156
2.4196
1.72801
1.03665
0.345417
8.69912
7.98657
7.28105
6.5804
5.88308
5.18801
4.49444
3.80186
3.10992
2.4184
1.72716
1.0361
0.345153
8.6781
7.97007
7.26837
6.57083
5.87597
5.1828
4.49066
3.79914
3.10798
2.41702
1.72619
1.03547
0.344897
8.64556
7.94585
7.25063
6.55802
5.86683
5.17635
4.48617
3.79603
3.10583
2.41552
1.72511
1.0347
0.344507
8.68924
7.98924
7.28966
6.59111
5.8938
5.19772
4.50272
3.80865
3.11534
2.42261
1.73035
1.03842
0.346746
8.69309
7.9914
7.29078
6.59161
5.89395
5.19768
4.50259
3.80849
3.11517
2.42246
1.73021
1.0383
0.34663
8.70003
7.99524
7.29273
6.59245
5.89416
5.19755
4.50232
3.80816
3.11485
2.42217
1.72996
1.03808
0.346415
8.70845
7.99976
7.29491
6.59326
5.89422
5.19723
4.50183
3.80764
3.11436
2.42174
1.72959
1.03777
0.346134
8.71614
8.00356
7.29642
6.59349
5.89378
5.1965
4.50103
3.80688
3.11368
2.42117
1.72913
1.0374
0.345828
8.72065
8.00503
7.29622
6.59247
5.89245
5.19513
4.49977
3.80579
3.11279
2.42045
1.72858
1.03699
0.345533
8.71945
8.00248
7.2932
6.58949
5.88977
5.19285
4.4979
3.8043
3.11162
2.41957
1.72793
1.03654
0.345276
8.71026
7.99433
7.28632
6.58389
5.88533
5.1894
4.49527
3.80232
3.11015
2.41849
1.72716
1.03605
0.34506
8.69125
7.97938
7.27481
6.57518
5.87884
5.18464
4.49181
3.79983
3.10837
2.41722
1.72627
1.03548
0.344849
8.66148
7.9571
7.2584
6.56328
5.87031
5.1786
4.48758
3.79689
3.10633
2.4158
1.72525
1.03475
0.344496
8.69671
7.99208
7.29
6.59021
5.8924
5.1962
4.5013
3.80741
3.11431
2.42179
1.7297
1.03792
0.346343
8.70059
7.99441
7.29133
6.59092
5.89272
5.1963
4.50128
3.80734
3.11421
2.42168
1.7296
1.03782
0.346244
8.70759
7.99858
7.29369
6.59215
5.89327
5.19646
4.50122
3.80718
3.11401
2.42148
1.72941
1.03764
0.346062
8.71616
8.00359
7.29644
6.59351
5.8938
5.19652
4.50104
3.80688
3.11369
2.42117
1.72913
1.0374
0.345826
8.72422
8.00807
7.29869
6.59441
5.89394
5.19625
4.5006
3.80639
3.11321
2.42075
1.72878
1.0371
0.345572
8.72941
8.01043
7.29938
6.59418
5.89326
5.1954
4.49974
3.8056
3.11254
2.4202
1.72834
1.03677
0.345333
8.72936
8.00904
7.29742
6.59209
5.89129
5.19367
4.49828
3.80442
3.1116
2.41948
1.7278
1.03641
0.345131
8.72194
8.00243
7.29179
6.58748
5.88761
5.1908
4.49607
3.80275
3.11035
2.41856
1.72715
1.03599
0.344967
8.70545
7.98942
7.28175
6.57986
5.88191
5.1866
4.49302
3.80055
3.10877
2.41743
1.72636
1.03549
0.344806
8.679
7.9695
7.26699
6.56909
5.87416
5.18109
4.48915
3.79785
3.10689
2.41611
1.72541
1.03482
0.3445
8.70047
7.99224
7.2884
6.58791
5.88997
5.19395
4.49936
3.80581
3.11302
2.42079
1.72894
1.03736
0.345944
8.70446
7.99479
7.28998
6.58885
5.8905
5.19422
4.49947
3.80583
3.11299
2.42073
1.72888
1.03729
0.345864
8.71169
7.9994
7.29282
6.59052
5.89142
5.19468
4.49964
3.80585
3.11293
2.42063
1.72876
1.03716
0.345718
8.72067
8.00507
7.29626
6.59251
5.89248
5.19516
4.49979
3.8058
3.11279
2.42046
1.72858
1.03698
0.34553
8.72941
8.01044
7.29939
6.5942
5.89327
5.19541
4.49974
3.80561
3.11254
2.4202
1.72834
1.03677
0.345331
8.73567
8.01397
7.30116
6.59489
5.89334
5.19515
4.49933
3.80516
3.11211
2.41982
1.72802
1.03652
0.345149
8.73723
8.01408
7.3005
6.59386
5.8922
5.19406
4.49836
3.80433
3.11143
2.41928
1.72762
1.03625
0.345003
8.73205
8.00936
7.2964
6.59044
5.88943
5.19186
4.49665
3.80302
3.11044
2.41855
1.7271
1.03592
0.344892
8.71856
7.99867
7.28811
6.58412
5.88469
5.18835
4.49408
3.80116
3.1091
2.41759
1.72642
1.0355
0.344782
8.69584
7.98144
7.27526
6.5747
5.87788
5.18349
4.49065
3.79876
3.10743
2.41641
1.72558
1.0349
0.344527
8.69773
7.98792
7.28371
6.5835
5.88612
5.19075
4.49679
3.80379
3.11147
2.41962
1.72809
1.03677
0.345581
8.70196
7.99077
7.28558
6.58469
5.88686
5.19118
4.49702
3.8039
3.11151
2.41962
1.72806
1.03673
0.34552
8.7097
7.99597
7.28899
6.58686
5.88818
5.19196
4.49744
3.8041
3.11158
2.41961
1.72801
1.03665
0.34541
8.71948
8.00252
7.29325
6.58954
5.88981
5.19288
4.49792
3.80431
3.11163
2.41957
1.72793
1.03654
0.345271
8.72937
8.00907
7.29744
6.59212
5.89131
5.19369
4.49829
3.80443
3.1116
2.41948
1.7278
1.0364
0.345127
8.73723
8.01409
7.30051
6.59387
5.89221
5.19406
4.49836
3.80433
3.11143
2.41928
1.72762
1.03625
0.345001
8.74093
8.01608
7.30138
6.59406
5.89202
5.19369
4.49791
3.80389
3.11103
2.41894
1.72735
1.03606
0.344907
8.73857
8.01365
7.29909
6.59203
5.89029
5.19226
4.49677
3.80298
3.11033
2.41841
1.72697
1.03583
0.344845
8.72861
8.00569
7.29287
6.58725
5.88668
5.18957
4.49478
3.80153
3.10928
2.41765
1.72644
1.0355
0.344781
8.71003
7.99151
7.28225
6.57943
5.881
5.1855
4.49191
3.79952
3.10787
2.41666
1.72572
1.035
0.344583
8.68587
7.97739
7.27484
6.5763
5.88045
5.18637
4.49346
3.80131
3.10964
2.41828
1.72713
1.03614
0.34526
8.69055
7.98065
7.27706
6.57777
5.8814
5.18697
4.49382
3.80151
3.10974
2.41832
1.72714
1.03612
0.345219
8.69918
7.98666
7.28115
6.58048
5.88315
5.18806
4.49447
3.80188
3.10993
2.4184
1.72715
1.03609
0.345145
8.71029
7.99439
7.28639
6.58395
5.88537
5.18944
4.49529
3.80233
3.11015
2.41849
1.72716
1.03604
0.345053
8.72195
8.00246
7.29183
6.58751
5.88763
5.19081
4.49608
3.80275
3.11035
2.41855
1.72714
1.03599
0.344962
8.73206
8.00938
7.29642
6.59045
5.88944
5.19186
4.49665
3.80302
3.11044
2.41854
1.72709
1.03592
0.344889
8.73858
8.01365
7.2991
6.59204
5.8903
5.19226
4.49677
3.80298
3.11033
2.41841
1.72697
1.03582
0.344843
8.7397
8.01398
7.29894
6.59161
5.88976
5.19171
4.49625
3.80253
3.10994
2.4181
1.72674
1.03569
0.344823
8.73395
8.00926
7.29516
6.58865
5.88747
5.18997
4.49495
3.80156
3.10923
2.41758
1.72637
1.03547
0.344801
8.72015
7.99868
7.28719
6.58276
5.88318
5.18689
4.49276
3.80003
3.10816
2.41683
1.72583
1.03509
0.344664
8.66275
7.95927
7.26095
6.56584
5.87269
5.18069
4.48935
3.79835
3.10753
2.41678
1.72608
1.03545
0.344949
8.66817
7.9631
7.26358
6.56762
5.87386
5.18144
4.48982
3.79863
3.10768
2.41686
1.72611
1.03545
0.344926
8.67821
7.97019
7.26848
6.57092
5.87604
5.18284
4.49069
3.79915
3.10798
2.41701
1.72617
1.03545
0.344885
8.69131
7.97946
7.27488
6.57524
5.87888
5.18467
4.49182
3.79983
3.10836
2.41721
1.72626
1.03546
0.344839
8.70549
7.98947
7.28179
6.57989
5.88194
5.18661
4.49302
3.80054
3.10876
2.41741
1.72634
1.03548
0.344798
8.71859
7.9987
7.28813
6.58414
5.88469
5.18835
4.49408
3.80115
3.10909
2.41757
1.72641
1.03549
0.344775
8.72863
8.00571
7.29288
6.58726
5.88668
5.18956
4.49478
3.80153
3.10927
2.41764
1.72643
1.03549
0.344776
8.73396
8.00927
7.29516
6.58865
5.88747
5.18997
4.49494
3.80155
3.10923
2.41758
1.72637
1.03547
0.344799
8.73325
8.00842
7.29429
6.58783
5.88674
5.18934
4.49443
3.80114
3.1089
2.41733
1.72619
1.03537
0.344819
8.72534
8.0023
7.28964
6.58436
5.8842
5.18751
4.49312
3.80022
3.10825
2.41687
1.72586
1.03515
0.344755
8.6272
7.93296
7.24177
6.55205
5.8629
5.17382
4.48456
3.79505
3.10524
2.41518
1.72494
1.03463
0.344511
8.63368
7.93751
7.2449
6.55416
5.86429
5.17471
4.48512
3.79538
3.10544
2.41529
1.72498
1.03464
0.344501
8.64572
7.946
7.25075
6.55811
5.86689
5.17639
4.48618