# vtk DataFile Version 2.0
I need something to put here
ASCII

DATASET STRUCTURED_GRID
DIMENSIONS 41 11 21
POINTS 9471 float
0.000000 1.000000 0.000000
0.100000 1.000000 0.000000
0.200000 1.000000 0.000000
0.300000 1.000000 0.000000
0.400000 1.000000 0.000000
0.500000 1.000000 0.000000
0.600000 1.000000 0.000000
0.700000 1.000000 0.000000
0.800000 1.000000 0.000000
0.900000 1.000000 0.000000
1.000000 1.000000 0.000000
1.100000 1.000000 0.000000
1.200000 1.000000 0.000000
1.300000 1.000000 0.000000
1.400000 1.000000 0.000000
1.500000 1.000000 0.000000
1.600000 1.000000 0.000000
1.700000 1.000000 0.000000
1.800000 1.000000 0.000000
1.900000 1.000000 0.000000
2.000000 1.000000 0.000000
2.100000 1.000000 0.000000
2.200000 1.000000 0.000000
2.300000 1.000000 0.000000
2.400000 1.000000 0.000000
2.500000 1.000000 0.000000
2.600000 1.000000 0.000000
2.700000 1.000000 0.000000
2.800000 1.000000 0.000000
2.900000 1.000000 0.000000
3.000000 1.000000 0.000000
3.100000 1.000000 0.000000
3.200000 1.000000 0.000000
3.300000 1.000000 0.000000
3.400000 1.000000 0.000000
3.500000 1.000000 0.000000
3.600000 1.000000 0.000000
3.700000 1.000000 0.000000
3.800000 1.000000 0.000000
3.900000 1.000000 0.000000
4.000000 1.000000 0.000000
0.000000 1.100000 0.000000
0.100000 1.100000 0.000000
0.200000 1.100000 0.000000
0.300000 1.100000 0.000000
0.400000 1.100000 0.000000
0.500000 1.100000 0.000000
0.600000 1.100000 0.000000
0.700000 1.100000 0.000000
0.800000 1.100000 0.000000
0.900000 1.100000 0.000000
1.000000 1.100000 0.000000
1.100000 1.100000 0.000000
1.200000 1.100000 0.000000
1.300000 1.100000 0.000000
1.400000 1.100000 0.000000
1.500000 1.100000 0.000000
1.600000 1.100000 0.000000
1.700000 1.100000 0.000000
1.800000 1.100000 0.000000
1.900000 1.100000 0.000000
2.000000 1.100000 0.000000
2.100000 1.100000 0.000000
2.200000 1.100000 0.000000
2.300000 1.100000 0.000000
2.400000 1.100000 0.000000
2.500000 1.100000 0.000000
2.600000 1.100000 0.000000
2.700000 1.100000 0.000000
2.800000 1.100000 0.000000
2.900000 1.100000 0.000000
3.000000 1.100000 0.000000
3.100000 1.100000 0.000000
3.200000 1.100000 0.000000
3.300000 1.100000 0.000000
3.400000 1.100000 0.000000
3.500000 1.100000 0.000000
3.600000 1.100000 0.000000
3.700000 1.100000 0.000000
3.800000 1.100000 0.000000
3.900000 1.100000 0.000000
4.000000 1.100000 0.000000
0.000000 1.200000 0.000000
0.100000 1.200000 0.000000
0.200000 1.200000 0.000000
0.300000 1.200000 0.000000
0.400000 1.200000 0.000000
0.500000 1.200000 0.000000
0.600000 1.200000 0.000000
0.700000 1.200000 0.000000
0.800000 1.200000 0.000000
0.900000 1.200000 0.000000
1.000000 1.200000 0.000000
1.100000 1.200000 0.000000
1.200000 1.200000 0.000000
1.300000 1.200000 0.000000
1.400000 1.200000 0.000000
1.500000 1.200000 0.000000
1.600000 1.200000 0.000000
1.700000 1.200000 0.000000
1.800000 1.200000 0.000000
1.900000 1.200000 0.000000
2.000000 1.200000 0.000000
2.100000 1.200000 0.000000
2.200000 1.200000 0.000000
2.300000 1.200000 0.000000
2.400000 1.200000 0.000000
2.500000 1.200000 0.000000
2.600000 1.200000 0.000000
2.700000 1.200000 0.000000
2.800000 1.200000 0.000000
2.900000 1.200000 0.000000
3.000000 1.200000 0.000000
3.100000 1.200000 0.000000
3.200000 1.200000 0.000000
3.300000 1.200000 0.000000
3.400000 1.200000 0.000000
3.500000 1.200000 0.000000
3.600000 1.200000 0.000000
3.700000 1.200000 0.000000
3.800000 1.200000 0.000000
3.900000 1.200000 0.000000
4.000000 1.200000 0.000000
0.000000 1.300000 0.000000
0.100000 1.300000 0.000000
0.200000 1.300000 0.000000
0.300000 1.300000 0.000000
0.400000 1.300000 0.000000
0.500000 1.300000 0.000000
0.600000 1.300000 0.000000
0.700000 1.300000 0.000000
0.800000 1.300000 0.000000
0.900000 1.300000 0.000000
1.000000 1.300000 0.000000
1.100000 1.300000 0.000000
1.200000 1.300000 0.000000
1.300000 1.300000 0.000000
1.400000 1.300000 0.000000
1.500000 1.300000 0.000000
1.600000 1.300000 0.000000
1.700000 1.300000 0.000000
1.800000 1.300000 0.000000
1.900000 1.300000 0.000000
2.000000 1.300000 0.000000
2.100000 1.300000 0.000000
2.200000 1.300000 0.000000
2.300000 1.300000 0.000000
2.400000 1.300000 0.000000
2.500000 1.300000 0.000000
2.600000 1.300000 0.000000
2.700000 1.300000 0.000000
2.800000 1.300000 0.000000
2.900000 1.300000 0.000000
3.000000 1.300000 0.000000
3.100000 1.300000 0.000000
3.200000 1.300000 0.000000
3.300000 1.300000 0.000000
3.400000 1.300000 0.000000
3.500000 1.300000 0.000000
3.600000 1.300000 0.000000
3.700000 1.300000 0.000000
3.800000 1.300000 0.000000
3.900000 1.300000 0.000000
4.000000 1.300000 0.000000
0.000000 1.400000 0.000000
0.100000 1.400000 0.000000
0.200000 1.400000 0.000000
0.300000 1.400000 0.000000
0.400000 1.400000 0.000000
0.500000 1.400000 0.000000
0.600000 1.400000 0.000000
0.700000 1.400000 0.000000
0.800000 1.400000 0.000000
0.900000 1.400000 0.000000
1.000000 1.400000 0.000000
1.100000 1.400000 0.000000
1.200000 1.400000 0.000000
1.300000 1.400000 0.000000
1.400000 1.400000 0.000000
1.500000 1.400000 0.000000
1.600000 1.400000 0.000000
1.700000 1.400000 0.000000
1.800000 1.400000 0.000000
1.900000 1.400000 0.000000
2.000000 1.400000 0.000000
2.100000 1.400000 0.000000
2.200000 1.400000 0.000000
2.300000 1.400000 0.000000
2.400000 1.400000 0.000000
2.500000 1.400000 0.000000
2.600000 1.400000 0.000000
2.700000 1.400000 0.000000
2.800000 1.400000 0.000000
2.900000 1.400000 0.000000
3.000000 1.400000 0.000000
3.100000 1.400000 0.000000
3.200000 1.400000 0.000000
3.300000 1.400000 0.000000
3.400000 1.400000 0.000000
3.500000 1.400000 0.000000
3.600000 1.400000 0.000000
3.700000 1.400000 0.000000
3.800000 1.400000 0.000000
3.900000 1.400000 0.000000
4.000000 1.400000 0.000000
0.000000 1.500000 0.000000
0.100000 1.500000 0.000000
0.200000 1.500000 0.000000
0.300000 1.500000 0.000000
0.400000 1.500000 0.000000
0.500000 1.500000 0.000000
0.600000 1.500000 0.000000
0.700000 1.500000 0.000000
0.800000 1.500000 0.000000
0.900000 1.500000 0.000000
1.000000 1.500000 0.000000
1.100000 1.500000 0.000000
1.200000 1.500000 0.000000
1.300000 1.500000 0.000000
1.400000 1.500000 0.000000
1.500000 1.500000 0.000000
1.600000 1.500000 0.000000
1.700000 1.500000 0.000000
1.800000 1.500000 0.000000
1.900000 1.500000 0.000000
2.000000 1.500000 0.000000
2.100000 1.500000 0.000000
2.200000 1.500000 0.000000
2.300000 1.500000 0.000000
2.400000 1.500000 0.000000
2.500000 1.500000 0.000000
2.600000 1.500000 0.000000
2.700000 1.500000 0.000000
2.800000 1.500000 0.000000
2.900000 1.500000 0.000000
3.000000 1.500000 0.000000
3.100000 1.500000 0.000000
3.200000 1.500000 0.000000
3.300000 1.500000 0.000000
3.400000 1.500000 0.000000
3.500000 1.500000 0.000000
3.600000 1.500000 0.000000
3.700000 1.500000 0.000000
3.800000 1.500000 0.000000
3.900000 1.500000 0.000000
4.000000 1.500000 0.000000
0.000000 1.600000 0.000000
0.100000 1.600000 0.000000
0.200000 1.600000 0.000000
0.300000 1.600000 0.000000
0.400000 1.600000 0.000000
0.500000 1.600000 0.000000
0.600000 1.600000 0.000000
0.700000 1.600000 0.000000
0.800000 1.600000 0.000000
0.900000 1.600000 0.000000
1.000000 1.600000 0.000000
1.100000 1.600000 0.000000
1.200000 1.600000 0.000000
1.300000 1.600000 0.000000
1.400000 1.600000 0.000000
1.500000 1.600000 0.000000
1.600000 1.600000 0.000000
1.700000 1.600000 0.000000
1.800000 1.600000 0.000000
1.900000 1.600000 0.000000
2.000000 1.600000 0.000000
2.100000 1.600000 0.000000
2.200000 1.600000 0.000000
2.300000 1.600000 0.000000
2.400000 1.600000 0.000000
2.500000 1.600000 0.000000
2.600000 1.600000 0.000000
2.700000 1.600000 0.000000
2.800000 1.600000 0.000000
2.900000 1.600000 0.000000
3.000000 1.600000 0.000000
3.100000 1.600000 0.000000
3.200000 1.600000 0.000000
3.300000 1.600000 0.000000
3.400000 1.600000 0.000000
3.500000 1.600000 0.000000
3.600000 1.600000 0.000000
3.700000 1.600000 0.000000
3.800000 1.600000 0.000000
3.900000 1.600000 0.000000
4.000000 1.600000 0.000000
0.000000 1.700000 0.000000
0.100000 1.700000 0.000000
0.200000 1.700000 0.000000
0.300000 1.700000 0.000000
0.400000 1.700000 0.000000
0.500000 1.700000 0.000000
0.600000 1.700000 0.000000
0.700000 1.700000 0.000000
0.800000 1.700000 0.000000
0.900000 1.700000 0.000000
1.000000 1.700000 0.000000
1.100000 1.700000 0.000000
1.200000 1.700000 0.000000
1.300000 1.700000 0.000000
1.400000 1.700000 0.000000
1.500000 1.700000 0.000000
1.600000 1.700000 0.000000
1.700000 1.700000 0.000000
1.800000 1.700000 0.000000
1.900000 1.700000 0.000000
2.000000 1.700000 0.000000
2.100000 1.700000 0.000000
2.200000 1.700000 0.000000
2.300000 1.700000 0.000000
2.400000 1.700000 0.000000
2.500000 1.700000 0.000000
2.600000 1.700000 0.000000
2.700000 1.700000 0.000000
2.800000 1.700000 0.000000
2.900000 1.700000 0.000000
3.000000 1.700000 0.000000
3.100000 1.700000 0.000000
3.200000 1.700000 0.000000
3.300000 1.700000 0.000000
3.400000 1.700000 0.000000
3.500000 1.700000 0.000000
3.600000 1.700000 0.000000
3.700000 1.700000 0.000000
3.800000 1.700000 0.000000
3.900000 1.700000 0.000000
4.000000 1.700000 0.000000
0.000000 1.800000 0.000000
0.100000 1.800000 0.000000
0.200000 1.800000 0.000000
0.300000 1.800000 0.000000
0.400000 1.800000 0.000000
0.500000 1.800000 0.000000
0.600000 1.800000 0.000000
0.700000 1.800000 0.000000
0.800000 1.800000 0.000000
0.900000 1.800000 0.000000
1.000000 1.800000 0.000000
1.100000 1.800000 0.000000
1.200000 1.800000 0.000000
1.300000 1.800000 0.000000
1.400000 1.800000 0.000000
1.500000 1.800000 0.000000
1.600000 1.800000 0.000000
1.700000 1.800000 0.000000
1.800000 1.800000 0.000000
1.900000 1.800000 0.000000
2.000000 1.800000 0.000000
2.100000 1.800000 0.000000
2.200000 1.800000 0.000000
2.300000 1.800000 0.000000
2.400000 1.800000 0.000000
2.500000 1.800000 0.000000
2.600000 1.800000 0.000000
2.700000 1.800000 0.000000
2.800000 1.800000 0.000000
2.900000 1.800000 0.000000
3.000000 1.800000 0.000000
3.100000 1.800000 0.000000
3.200000 1.800000 0.000000
3.300000 1.800000 0.000000
3.400000 1.800000 0.000000
3.500000 1.800000 0.000000
3.600000 1.800000 0.000000
[...]
CELL_DATA 8000
SCALARS pressure float 1
LOOKUP_TABLE default
-34.5137
-26.064
-22.3544
-20.5558
-19.5381
-18.8465
-18.2869
-17.7675
-17.2379
-16.6652
-16.028
-15.3166
-14.5355
-13.7014
-12.8353
-11.9578
-11.0898
-10.2537
-9.47306
-8.76672
-8.1407
-7.58783
-7.09315
-6.63996
-6.2136
-5.80302
-5.40075
-5.00219
-4.60477
-4.20719
-3.80893
-3.40988
-3.01009
-2.60968
-2.2088
-1.80756
-1.40605
-1.00436
-0.602578
-0.2008
-34.2008
-25.9206
-22.2836
-20.517
-19.5135
-18.8276
-18.2693
-17.749
-17.2177
-16.6437
-16.0065
-15.2971
-14.5199
-13.6912
-12.8316
-11.9611
-11.0999
-10.2698
-9.49358
-8.78944
-8.16328
-7.60841
-7.11065
-6.654
-6.22434
-5.81091
-5.40634
-5.00602
-4.60729
-4.2088
-3.80991
-3.41044
-3.01038
-2.60982
-2.20884
-1.80754
-1.40601
-1.00432
-0.602546
-0.200782
-33.5778
-25.6365
-22.1439
-20.4408
-19.4652
-18.7901
-18.2341
-17.7118
-17.177
-16.6004
-15.9634
-15.2581
-14.4891
-13.6713
-12.8243
-11.967
-11.1189
-10.3007
-9.53337
-8.8338
-8.20755
-7.64891
-7.14521
-6.68188
-6.24583
-5.82684
-5.41778
-5.01399
-4.6127
-4.21238
-3.81222
-3.41189
-3.01126
-2.61032
-2.20911
-1.80768
-1.40607
-1.00434
-0.602539
-0.200766
-32.6566
-25.2225
-21.9452
-20.3357
-19.4006
-18.7411
-18.1882
-17.6631
-17.1233
-16.5431
-15.9062
-15.2065
-14.4483
-13.6452
-12.8147
-11.975
-11.1443
-10.3417
-9.58639
-8.89292
-8.2666
-7.70298
-7.19142
-6.71924
-6.27468
-5.84831
-5.43324
-5.02482
-4.6201
-4.21731
-3.81544
-3.41394
-3.01253
-2.61109
-2.20956
-1.80792
-1.40619
-1.00439
-0.602552
-0.200755
-31.4564
-24.6964
-21.703
-20.2148
-19.331
-18.6906
-18.1413
-17.6124
-17.0667
-16.4819
-15.8448
-15.1508
-14.4043
-13.617
-12.8048
-11.9842
-11.1725
-10.3871
-9.64466
-8.95781
-8.33144
-7.76246
-7.24235
-6.7605
-6.30662
-5.8721
-5.4504
-5.03685
-4.62834
-4.22282
-3.81905
-3.41625
-3.01398
-2.61197
-2.21008
-1.80822
-1.40635
-1.00447
-0.60258
-0.200751
-30.007
-24.0853
-21.4395
-20.0961
-19.2707
-18.6505
-18.1039
-17.5701
-17.0173
-16.4271
-15.789
-15.0998
-14.3638
-13.5913
-12.7961
-11.9937
-11.1999
-10.4306
-9.7002
-9.01953
-8.39316
-7.81917
-7.29104
-6.80001
-6.33724
-5.89494
-5.46687
-5.04841
-4.63624
-4.22811
-3.8225
-3.41847
-3.01537
-2.61282
-2.21059
-1.80851
-1.40651
-1.00455
-0.602617
-0.200756
-28.3574
-23.4312
-21.1869
-20.0022
-19.2358
-18.6326
-18.0856
-17.5446
-16.9834
-16.3868
-15.7464
-15.0602
-14.3321
-13.5712
-12.79
-12.0026
-11.2235
-10.4673
-9.74667
-9.07101
-8.44461
-7.86653
-7.33175
-6.8331
-6.3629
-5.91406
-5.48066
-5.05806
-4.64283
-4.2325
-3.82537
-3.4203
-3.01652
-2.61353
-2.21101
-1.80876
-1.40665
-1.00463
-0.602659
-0.200773
-26.5963
-22.8028
-20.9897
-19.9597
-19.2414
-18.6461
-18.0924
-17.5407
-16.9692
-16.3649
-15.7208
-15.0352
-14.3117
-13.5585
-12.7869
-12.0098
-11.2411
-10.494
-9.78006
-9.10782
-8.48135
-7.90031
-7.36078
-6.85668
-6.38115
-5.92763
-5.49041
-5.06486
-4.64744
-4.23556
-3.82736
-3.42156
-3.01731
-2.61401
-2.21129
-1.80892
-1.40675
-1.00469
-0.602699
-0.2008
-24.9073
-22.3144
-20.9036
-19.9907
-19.2938
-18.6905
-18.1221
-17.5562
-16.9733
-16.3608
-15.712
-15.0249
-14.3028
-13.5531
-12.7862
-12.0145
-11.2512
-10.5089
-9.7985
-9.12798
-8.50137
-7.91864
-7.37645
-6.86932
-6.39087
-5.93479
-5.4955
-5.06836
-4.64979
-4.2371
-3.82835
-3.42218
-3.01769
-2.61423
-2.21143
-1.809
-1.40679
-1.00472
-0.602729
-0.200834
-23.7234
-22.1403
-20.9656
-20.0822
-19.3682
-18.7432
-18.1573
-17.5788
-16.9872
-16.3689
-15.7164
-15.0271
-14.3039
-13.5538
-12.787
-12.0156
-11.2528
-10.511
-9.80092
-9.13049
-8.50369
-7.92059
-7.37793
-6.87034
-6.39149
-5.93512
-5.49563
-5.06838
-4.64975
-4.23703
-3.82828
-3.42212
-3.01764
-2.6142
-2.2114
-1.80898
-1.40678
-1.00471
-0.602733
-0.200854
-27.721
-24.7777
-22.4141
-20.8342
-19.7674
-18.9854
-18.3466
-17.7669
-17.1947
-16.5959
-15.9479
-15.2398
-14.4734
-13.6623
-12.8243
-11.9771
-11.1388
-10.3287
-9.56699
-8.87057
-8.24472
-7.68371
-7.17557
-6.70678
-6.26522
-5.84135
-5.42829
-5.02146
-4.61795
-4.21605
-3.81481
-3.41373
-3.0126
-2.61131
-2.20985
-1.80823
-1.40649
-1.00467
-0.602794
-0.200919
-27.5436
-24.6604
-22.3428
-20.7909
-19.7396
-18.9653
-18.3296
-17.7504
-17.1776
-16.5781
-15.9304
-15.2239
-14.4607
-13.654
-12.8213
-11.9797
-11.147
-10.3417
-9.58363
-8.88903
-8.26309
-7.7005
-7.1899
-6.71836
-6.27415
-5.84797
-5.43303
-5.02473
-4.62013
-4.21745
-3.81567
-3.41423
-3.01286
-2.61142
-2.20987
-1.80822
-1.40646
-1.00463
-0.602762
-0.200897
-27.1918
-24.4284
-22.2024
-20.7058
-19.6846
-18.9252
-18.2954
-17.7171
-17.143
-16.5422
-15.8949
-15.192
-14.4355
-13.6378
-12.8153
-11.9844
-11.1623
-10.3667
-9.61602
-8.92518
-8.29922
-7.73363
-7.21832
-6.74146
-6.29213
-5.86144
-5.44281
-5.03162
-4.62486
-4.22062
-3.81773
-3.41553
-3.01365
-2.61188
-2.21013
-1.80834
-1.40651
-1.00464
-0.602753
-0.200875
-26.6775
-24.0927
-22.0026
-20.5872
-19.6098
-18.8718
-18.2503
-17.6732
-17.0972
-16.4945
-15.8479
-15.1497
-14.4022
-13.6164
-12.8074
-11.9907
-11.1826
-10.3999
-9.65904
-8.97324
-8.34726
-7.77775
-7.25623
-6.77234
-6.31621
-5.87955
-5.456
-5.04097
-4.63132
-4.22497
-3.8206
-3.41738
-3.0148
-2.61258
-2.21053
-1.80856
-1.40662
-1.00469
-0.602762
-0.200855
-26.0199
-23.6709
-21.7584
-20.4476
-19.5258
-18.8142
-18.2027
-17.6272
-17.0489
-16.4439
-15.7978
-15.1045
-14.3665
-13.5936
-12.7991
-11.9978
-11.205
-10.4361
-9.70588
-9.0255
-8.39957
-7.82588
-7.29766
-6.80615
-6.34261
-5.89941
-5.47048
-5.05124
-4.63842
-4.22977
-3.82377
-3.41942
-3.01609
-2.61337
-2.211
-1.80883
-1.40676
-1.00475
-0.60278
-0.20084
-25.2481
-23.1894
-21.4917
-20.3043
-19.4459
-18.7633
-18.1624
-17.5879
-17.0069
-16.3992
-15.753
-15.0637
-14.3342
-13.573
-12.792
-12.0051
-11.2264
-10.4703
-9.74964
-9.07424
-8.44839
-7.87088
-7.33646
-6.83783
-6.36734
-5.91801
-5.48401
-5.06081
-4.64502
-4.23421
-3.82669
-3.4213
-3.01727
-2.61409
-2.21143
-1.80907
-1.40689
-1.00482
-0.602802
-0.200832
-24.4067
-22.6872
-21.2322
-20.1785
-19.385
-18.7302
-18.1379
-17.5632
-16.9787
-16.3676
-15.7202
-15.0335
-14.3101
-13.5576
-12.7872
-12.0115
-11.244
-10.4978
-9.78459
-9.11303
-8.48721
-7.90664
-7.36726
-6.86294
-6.38689
-5.93263
-5.49459
-5.06824
-4.6501
-4.2376
-3.8289
-3.42271
-3.01815
-2.61462
-2.21173
-1.80924
-1.40698
-1.00486
-0.602818
-0.200833
-23.5697
-22.2229
-21.0193
-20.0941
-19.3573
-18.7232
-18.1353
-17.558
-16.9688
-16.3534
-15.7038
-15.0174
-14.2969
-13.5494
-12.7851
-12.0162
-11.2554
-10.5152
-9.80652
-9.13718
-8.51123
-7.92863
-7.38605
-6.87809
-6.39852
-5.9412
-5.50068
-5.07243
-4.6529
-4.23942
-3.83005
-3.42341
-3.01856
-2.61485
-2.21186
-1.8093
-1.407
-1.00487
-0.602822
-0.200844
-22.8663
-21.885
-20.901
-20.0729
-19.3709
-18.7448
-18.1548
-17.5724
-16.9779
-16.3581
-15.7053
-15.0171
-14.2961
-13.5489
-12.7857
-12.0181
-11.2588
-10.52
-9.81232
-9.14335
-8.51709
-7.93366
-7.38999
-6.88092
-6.40039
-5.94232
-5.50126
-5.07266
-4.65293
-4.23934
-3.82992
-3.42328
-3.01843
-2.61474
-2.21177
-1.80923
-1.40695
-1.00483
-0.602803
-0.200855
-22.519
-21.7966
-20.9236
-20.123
-19.4199
-18.7863
-18.1893
-17.6017
-17.0034
-16.3805
-15.7247
-15.0331
-14.308
-13.5564
-12.7883
-12.0159
-11.2521
-10.5095
-9.79898
-9.12836
-8.50168
-7.91891
-7.37669
-6.86953
-6.39105
-5.93495
-5.49563
-5.06848
-4.64989
-4.23719
-3.82842
-3.42225
-3.01774
-2.61428
-2.21146
-1.80903
-1.40682
-1.00474
-0.602742
-0.20084
-24.0033
-23.0274
-21.7535
-20.6352
-19.7337
-18.9975
-18.3622
-17.7754
-17.1971
-16.5964
-15.9494
-15.2414
-14.4726
-13.6618
-12.8286
-11.988
-11.1543
-10.344
-9.5795
-8.88432
-8.26323
-7.70694
-7.2011
-6.73177
-6.28759
-5.86003
-5.44308
-5.03269
-4.6262
-4.22197
-3.81896
-3.4166
-3.01456
-2.61263
-2.21074
-1.80884
-1.4069
-1.00494
-0.602975
-0.201004
-23.8988
-22.9447
-21.6956
-20.5962
-19.7069
-18.9775
-18.3453
-17.759
-17.18
-16.5783
-15.9312
-15.2247
-14.4592
-13.6529
-12.8251
-11.9901
-11.1621
-10.3569
-9.59649
-8.90324
-8.28181
-7.72357
-7.21498
-6.74278
-6.29594
-5.86615
-5.44742
-5.03566
-4.62817
-4.22322
-3.81973
-3.41704
-3.01478
-2.61272
-2.21075
-1.80881
-1.40686
-1.0049
-0.60294
-0.200978
-23.693
-22.7819
-21.5816
-20.5194
-19.6539
-18.9377
-18.3111
-17.7257
-17.145
-16.5413
-15.894
-15.191
-14.433
-13.6362
-12.8185
-11.9941
-11.1767
-10.3819
-9.62997
-8.94069
-8.31859
-7.75651
-7.24258
-6.76477
-6.31279
-5.87863
-5.45641
-5.04197
-4.63249
-4.2261
-3.82159
-3.41821
-3.01549
-2.61313
-2.21097
-1.80891
-1.4069
-1.00491
-0.602924
-0.200947
-23.3978
-22.5496
-21.4207
-20.4127
-19.5816
-18.8842
-18.2657
-17.6816
-17.0987
-16.4923
-15.8446
-15.1462
-14.3983
-13.6142
-12.8099
-11.9991
-11.1958
-10.4149
-9.67437
-8.99028
-8.36723
-7.80006
-7.27911
-6.79393
-6.33518
-5.89527
-5.46843
-5.05044
-4.63832
-4.23002
-3.82417
-3.41986
-3.01652
-2.61375
-2.21133
-1.8091
-1.40699
-1.00494
-0.602921
-0.200914
-23.0319
-22.2644
-21.2272
-20.2879
-19.4999
-18.8258
-18.2174
-17.6353
-17.0501
-16.4408
-15.7928
-15.0991
-14.3616
-13.5909
-12.8008
-12.0048
-11.2165
-10.4503
-9.72151
-9.04292
-8.41901
-7.84661
-7.31828
-6.82527
-6.35927
-5.91318
-5.48137
-5.05955
-4.64458
-4.23423
-3.82694
-3.42164
-3.01763
-2.61442
-2.21172
-1.80932
-1.4071
-1.00498
-0.602923
-0.200884
-22.6218
-21.95
-21.0205
-20.1605
-19.4211
-18.7729
-18.1755
-17.5957
-17.0085
-16.3964
-15.748
-15.0582
-14.3294
-13.5704
-12.7931
-12.0104
-11.2357
-10.4823
-9.76362
-9.08987
-8.46538
-7.88847
-7.3536
-6.85355
-6.38097
-5.92926
-5.49293
-5.06764
-4.65011
-4.23792
-3.82934
-3.42317
-3.01857
-2.61499
-2.21204
-1.80949
-1.40718
-1.00501
-0.602923
-0.200861
-22.2051
-21.6384
-20.8259
-20.0493
-19.3591
-18.736
-18.1488
-17.5708
-16.9816
-16.3669
-15.7174
-15.03
-14.3069
-13.556
-12.788
-12.0151
-11.2503
-10.5063
-9.79467
-9.12435
-8.49942
-7.91917
-7.37942
-6.87408
-6.39657
-5.94068
-5.50102
-5.0732
-4.65383
-4.24034
-3.83088
-3.42411
-3.01913
-2.6153
-2.21221
-1.80957
-1.40721
-1.00501
-0.602913
-0.200849
-21.8348
-21.3731
-20.6745
-19.9749
-19.3272
-18.724
-18.1439
-17.5665
-16.975
-16.3573
-15.706
-15.0185
-14.2975
-13.55
-12.7862
-12.018
-11.258
-10.5184
-9.81024
-9.14143
-8.51601
-7.93379
-7.39131
-6.88315
-6.40311
-5.94517
-5.50396
-5.07505
-4.65493
-4.24095
-3.83118
-3.42423
-3.01915
-2.61527
-2.21215
-1.80951
-1.40715
-1.00497
-0.602884
-0.200847
-21.5843
-21.2092
-20.6017
-19.9571
-19.3357
-18.7424
-18.1643
-17.5854
-16.9912
-16.3705
-15.7162
-15.0262
-14.303
-13.5535
-12.7878
-12.0178
-11.2564
-10.5158
-9.80682
-9.13732
-8.51128
-7.92863
-7.38602
-6.87806
-6.39849
-5.94118
-5.50066
-5.07241
-4.65289
-4.23941
-3.83004
-3.42341
-3.01856
-2.61485
-2.21186
-1.8093
-1.40701
-1.00487
-0.602825
-0.200846
-21.5328
-21.2094
-20.6428
-20.0114
-19.3894
-18.7917
-18.2095
-17.6276
-17.031
-16.4077
-15.7498
-15.0546
-14.3245
-13.5669
-12.7922
-12.0132
-11.2433
-10.4954
-9.78097
-9.10843
-8.48179
-7.90065
-7.36106
-6.85691
-6.38135
-5.9278
-5.49055
-5.06498
-4.64755
-4.23566
-3.82745
-3.42164
-3.01737
-2.61406
-2.21134
-1.80896
-1.40678
-1.00471
-0.602718
-0.200812
-21.9625
-21.6591
-20.9924
-20.2527
-19.5556
-18.9236
-18.3431
-17.7905
-17.2397
-16.664
-16.0347
-15.3258
-14.5321
-13.6966
-12.8475
-11.9936
-11.1423
-10.3035
-9.50697
-8.80419
-8.19578
-7.65951
-7.17231
-6.7169
-6.28171
-5.85925
-5.4448
-5.03532
-4.62891
-4.22436
-3.82091
-3.41811
-3.01568
-2.61346
-2.21134
-1.80926
-1.40721
-1.00516
-0.603125
-0.201091
-21.8966
-21.6027
-20.949
-20.221
-19.5321
-18.9047
-18.3259
-17.7726
-17.2196
-16.6415
-16.0111
-15.3038
-14.5147
-13.6847
-12.8424
-11.9955
-11.1514
-10.3192
-9.5287
-8.82859
-8.21914
-7.67959
-7.18838
-6.72913
-6.29066
-5.86561
-5.44918
-5.03826
-4.63082
-4.22555
-3.82162
-3.4185
-3.01587
-2.61353
-2.21133
-1.80922
-1.40716
-1.00512
-0.603086
-0.201059
-21.768
-21.4921
-20.8639
-20.1583
-19.4852
-18.8667
-18.2908
-17.7358
-17.1783
-16.5948
-15.9618
-15.2583
-14.4807
-13.6638
-12.8337
-11.9989
-11.1676
-10.3498
-9.57302
-8.87821
-8.26612
-7.71967
-7.22036
-6.75352
-6.30865
-5.87854
-5.45826
-5.04449
-4.635
-4.2283
-3.82338
-3.41959
-3.01652
-2.61389
-2.21152
-1.80931
-1.40718
-1.00511
-0.603061
-0.201018
-21.5887
-21.3377
-20.7456
-20.0721
-19.4216
-18.8158
-18.2442
-17.6871
-17.1234
-16.5326
-15.8952
-15.1963
-14.4352
-13.6365
-12.8221
-12.0027
-11.1881
-10.3904
-9.63284
-8.94446
-8.3282
-7.77236
-7.26236
-6.78557
-6.33234
-5.89559
-5.47026
-5.05276
-4.64059
-4.23199
-3.82577
-3.4211
-3.01745
-2.61444
-2.21182
-1.80946
-1.40725
-1.00512
-0.603043
-0.200972
-21.3766
-21.1545
-20.607
-19.9732
-19.3506
-18.7606
-18.1948
-17.6362
-17.0664
-16.4683
-15.827
-15.133
-14.3876
-13.6075
-12.8098
-12.007
-11.2103
-10.433
-9.69394
-9.01235
-8.39243
-7.82734
-7.30644
-6.81933
-6.35732
-5.91356
-5.48288
-5.06144
-4.64643
-4.23584
-3.82825
-3.42267
-3.0184
-2.615
-2.21214
-1.80962
-1.40732
-1.00514
-0.603026
-0.200927
-21.1557
-20.963
-20.4648
-19.8753
-19.2836
-18.7111
-18.1524
-17.5932
-17.0186
-16.4146
-15.7705
-15.0805
-14.3471
-13.5821
-12.7993
-12.0113
-11.2305
-10.4701
-9.74532
-9.06959
-8.44725
-7.87476
-7.34467
-6.84864
-6.37892
-5.929
-5.49362
-5.06873
-4.65127
-4.23898
-3.83024
-3.42389
-3.01913
-2.61541
-2.21236
-1.80973
-1.40735
-1.00514
-0.603002
-0.200889
-20.9557
-20.7881
-20.3391
-19.7941
-19.2329
-18.6777
-18.126
-17.5671
-16.989
-16.3806
-15.7341
-15.0464
-14.3203
-13.5649
-12.7923
-12.0147
-11.2449
-10.4958
-9.78025
-9.10842
-8.48455
-7.90702
-7.3705
-6.86814
-6.39299
-5.93877
-5.50019
-5.07301
-4.65398
-4.24064
-3.83121
-3.42443
-3.0194
-2.61553
-2.21239
-1.80971
-1.40732
-1.0051
-0.602965
-0.200863
-20.8118
-20.6584
-20.2521
-19.7459
-19.2106
-18.6694
-18.1232
-17.5646
-16.9838
-16.372
-15.723
-15.0348
-14.3108
-13.5588
-12.7898
-12.0162
-11.2508
-10.5064
-9.79451
-9.12405
-8.49904
-7.91878
-7.37904
-6.87374
-6.39627
-5.94041
-5.5008
-5.07302
-4.65368
-4.24022
-3.83078
-3.42404
-3.01907
-2.61526
-2.21217
-1.80954
-1.40719
-1.005
-0.602906
-0.200849
-20.7581
-20.6024
-20.2258
-19.746
-19.2267
-18.693
-18.1492
-17.59
-17.0072
-16.3924
-15.7399
-15.0483
-14.3207
-13.565
-12.792
-12.0144
-11.2456
-10.4985
-9.78478
-9.11289
-8.4869
-7.90627
-7.36688
-6.86258
-6.38656
-5.93235
-5.49436
-5.06805
-4.64995
-4.23748
-3.82881
-3.42264
-3.01809
-2.61458
-2.2117
-1.80922
-1.40697
-1.00485
-0.602816
-0.200836
-20.7997
-20.6404
-20.2795
-19.8072
-19.2884
-18.7525
-18.2065
-17.6457
-17.0613
-16.444
-15.7871
-15.0885
-14.3513
-13.584
-12.7983
-12.0077
-11.2266
-10.469
-9.74758
-9.07143
-8.44477
-7.86655
-7.33171
-6.83304
-6.36284
-5.91401
-5.48062
-5.05804
-4.64282
-4.2325
-3.82538
-3.42032
-3.01654
-2.61355
-2.21103
-1.80878
-1.40667
-1.00465
-0.602675
-0.200786
-20.8029
-20.7143
-20.3489
-19.8584
-19.3337
-18.8148
-18.3122
-17.8216
-17.3291
-16.8117
-16.2294
-15.5231
-14.6547
-13.758
-12.8781
-11.997
-11.1126
-10.2074
-9.31919
-8.60333
-8.02928
-7.53856
-7.09118
-6.66544
-6.25051
-5.84114
-5.43476
-5.03008
-4.6264
-4.22334
-3.82065
-3.41821
-3.01592
-2.61373
-2.21159
-1.80948
-1.40738
-1.00531
-0.603245
-0.201185
-20.7576
-20.6751
-20.3172
-19.8335
-19.3136
-18.797
-18.2939
-17.8003
-17.303
-16.7802
-16.1948
-15.491
-14.6306
-13.7408
-12.8707
-11.9991
-11.1245
-10.2279
-9.35092
-8.63967
-8.06302
-7.56618
-7.11215
-6.68062
-6.26115
-5.84841
-5.43961
-5.03324
-4.6284
-4.22455
-3.82136
-3.41859
-3.01609
-2.61378
-2.21157
-1.80943
-1.40733
-1.00526
-0.6032
-0.201148
-20.6701
-20.5987
-20.2551
-19.7843
-19.2734
-18.7607
-18.2563
-17.7562
-17.2481
-16.7125
-16.118
-15.4189
-14.5823
-13.7137
-12.859
-12.0021
-11.1436
-10.27
-9.42136
-8.71786
-8.13296
-7.62205
-7.15406
-6.71088
-6.28244
-5.8631
-5.44957
-5.03987
-4.63274
-4.22733
-3.8231
-3.41964
-3.01671
-2.61411
-2.21173
-1.80949
-1.40734
-1.00524
-0.603165
-0.201098
-20.5524
-20.495
-20.1705
-19.7177
-19.2194
-18.7124
-18.2064
-17.6977
-17.1749
-16.6206
-16.0098
-15.3122
-14.5146
-13.6793
-12.8428
-12.0036
-11.1648
-10.3265
-9.52342
-8.82622
-8.22668
-7.69565
-7.20889
-6.75039
-6.31026
-5.88231
-5.46262
-5.04859
-4.63847
-4.23103
-3.82543
-3.42108
-3.01756
-2.6146
-2.21199
-1.80961
-1.40738
-1.00523
-0.603132
-0.201039
-20.422
-20.3777
-20.075
-19.6434
-19.1605
-18.6609
-18.1542
-17.6372
-17.0999
-16.5278
-15.9033
-15.2093
-14.4441
-13.6407
-12.8253
-12.006
-11.1898
-10.386
-9.62088
-8.932
-8.32058
-7.77074
-7.26543
-6.79137
-6.33914
-5.90223
-5.4761
-5.05754
-4.64431
-4.23477
-3.82777
-3.42251
-3.01841
-2.61507
-2.21224
-1.80973
-1.40742
-1.00523
-0.603096
-0.200979
-20.3001
-20.2642
-19.9828
-19.5735
-19.1072
-18.6163
-18.1104
-17.5871
-17.0383
-16.453
-15.8196
-15.1296
-14.3856
-13.6062
-12.81
-12.0089
-11.2134
-10.4361
-9.6965
-9.01546
-8.39695
-7.83323
-7.3131
-6.82602
-6.36346
-5.91882
-5.48715
-5.06474
-4.6489
-4.23762
-3.8295
-3.42351
-3.01897
-2.61536
-2.21237
-1.80977
-1.40741
-1.00519
-0.60305
-0.200926
-20.2104
-20.1733
-19.9092
-19.5207
-19.0706
-18.5888
-18.0848
-17.5576
-17.001
-16.4069
-15.7679
-15.0802
-14.3477
-13.5827
-12.7996
-12.0112
-11.23
-10.4694
-9.74447
-9.06869
-8.44635
-7.87391
-7.3439
-6.84795
-6.37832
-5.92849
-5.49319
-5.06838
-4.65098
-4.23875
-3.83005
-3.42374
-3.01901
-2.61531
-2.21228
-1.80967
-1.40731
-1.00511
-0.602987
-0.200885
-20.1747
-20.1224
-19.8691
-19.4974
-19.0609
-18.5869
-18.0852
-17.5561
-16.9948
-16.395
-15.7517
-15.0634
-14.3343
-13.5741
-12.7955
-12.0116
-11.2359
-10.4818
-9.76269
-9.08871
-8.46414
-7.88725
-7.35246
-6.85253
-6.38007
-5.92849
-5.49229
-5.06711
-4.64967
-4.23756
-3.82906
-3.42294
-3.01839
-2.61484
-2.21193
-1.80941
-1.40712
-1.00497
-0.602901
-0.200857
-20.2028
-20.1224
-19.8738
-19.5137
-19.0864
-18.6174
-18.1176
-17.5879
-17.0242
-16.4207
-15.7731
-15.0803
-14.3468
-13.5819
-12.7978
-12.0084
-11.2279
-10.4705
-9.74912
-9.07329
-8.44725
-7.86969
-7.33532
-6.8368
-6.36644
-5.91724
-5.48337
-5.06028
-4.64459
-4.23387
-3.82642
-3.42109
-3.0171
-2.61396
-2.21133
-1.809
-1.40684
-1.00478
-0.602784
-0.200831
-20.2673
-20.1706
-19.9302
-19.5774
-19.1532
-18.6851
-18.1855
-17.6561
-17.0921
-16.4866
-15.8339
-15.1324
-14.3866
-13.6066
-12.8059
-11.9995
-11.203
-10.4319
-9.70043
-9.01916
-8.39248
-7.81839
-7.29026
-6.7993
-6.33662
-5.89441
-5.46644
-5.04806
-4.63597
-4.22789
-3.82234
-3.41834
-3.01528
-2.61276
-2.21054
-1.80848
-1.4065
-1.00455
-0.60262
-0.200767
-20.1245
-20.0901
-19.866
-19.5255
-19.1276
-18.7092
-18.2901
-17.8789
-17.4752
-17.0639
-16.5921
-15.9216
-14.828
-13.8097
-12.9129
-12.0007
-11.0966
-10.0735
-8.92314
-8.21915
-7.74043
-7.34152
-6.96268
-6.58375
-6.19951
-5.80982
-5.41584
-5.01884
-4.61986
-4.21962
-3.81861
-3.41713
-3.01539
-2.6135
-2.21152
-1.80949
-1.40744
-1.00539
-0.603334
-0.201285
-20.09
-20.0614
-19.8424
-19.506
-19.1103
-18.6917
-18.2696
-17.8523
-17.4395
-17.0179
-16.5401
-15.8764
-14.8005
-13.7872
-12.9044
-12.0031
-11.1114
-10.095
-8.97014
-8.27582
-7.79141
-7.38116
-6.99124
-6.60346
-6.21276
-5.81854
-5.42147
-5.02241
-4.62206
-4.22093
-3.81935
-3.41752
-3.01556
-2.61354
-2.21149
-1.80944
-1.40738
-1.00533
-0.603284
-0.201243
-20.0242
-20.0059
-19.7962
-19.4671
-19.0752
-18.6559
-18.2272
-17.7965
-17.3626
-16.9137
-16.4116
-15.753
-14.7359
-13.7572
-12.8911
-12.0076
-11.1319
-10.1511
-9.0946
-8.41019
-7.90243
-7.46318
-7.04878
-6.64275
-6.23916
-5.83605
-5.43295
-5.02984
-4.62679
-4.22389
-3.82115
-3.41859
-3.01616
-2.61386
-2.21164
-1.80949
-1.40738
-1.0053
-0.603239
-0.201185
-19.939
-19.9329
-19.7349
-19.4153
-19.0287
-18.6085
-18.1712
-17.7222
-17.2582
-16.7655
-16.2107
-15.526
-14.6364
-13.7283
-12.8682
-12.0038
-11.1377
-10.2259
-9.31464
-8.61426
-8.05674
-7.57254
-7.1242
-6.69395
-6.27349
-5.85883
-5.44789
-5.03951
-4.63297
-4.22777
-3.82354
-3.42002
-3.01699
-2.61431
-2.21187
-1.80958
-1.4074
-1.00528
-0.603192
-0.201114
-19.8515
-19.8552
-19.6689
-19.3598
-18.9795
-18.559
-18.1133
-17.6462
-17.1533
-16.6217
-16.0274
-15.3359
-14.529
-13.6841
-12.8446
-12.0026
-11.1601
-10.3119
-9.49553
-8.7978
-8.20489
-7.68152
-7.20086
-6.7465
-6.30885
-5.88224
-5.46317
-5.04933
-4.63918
-4.23162
-3.82588
-3.4214
-3.01778
-2.61473
-2.21207
-1.80966
-1.4074
-1.00525
-0.603139
-0.201041
-19.7811
-19.7877
-19.6103
-19.3111
-18.9376
-18.518
-18.0659
-17.5844
-17.0694
-16.511
-15.8945
-15.205
-14.4418
-13.639
-12.8237
-12.004
-11.1876
-10.3839
-9.61894
-8.93025
-8.319
-7.76932
-7.26419
-6.7903
-6.33823
-5.90146
-5.47546
-5.05702
-4.64388
-4.23442
-3.82749