# vtk DataFile Version 2.0
I need something to put here
ASCII

DATASET STRUCTURED_GRID
DIMENSIONS 41 11 21
POINTS 9471 float
0.000000 1.000000 0.000000
0.100000 1.000000 0.000000
0.200000 1.000000 0.000000
0.300000 1.000000 0.000000
0.400000 1.000000 0.000000
0.500000 1.000000 0.000000
0.600000 1.000000 0.000000
0.700000 1.000000 0.000000
0.800000 1.000000 0.000000
0.900000 1.000000 0.000000
1.000000 1.000000 0.000000
1.100000 1.000000 0.000000
1.200000 1.000000 0.000000
1.300000 1.000000 0.000000
1.400000 1.000000 0.000000
1.500000 1.000000 0.000000
1.600000 1.000000 0.000000
1.700000 1.000000 0.000000
1.800000 1.000000 0.000000
1.900000 1.000000 0.000000
2.000000 1.000000 0.000000
2.100000 1.000000 0.000000
2.200000 1.000000 0.000000
2.300000 1.000000 0.000000
2.400000 1.000000 0.000000
2.500000 1.000000 0.000000
2.600000 1.000000 0.000000
2.700000 1.000000 0.000000
2.800000 1.000000 0.000000
2.900000 1.000000 0.000000
3.000000 1.000000 0.000000
3.100000 1.000000 0.000000
3.200000 1.000000 0.000000
3.300000 1.000000 0.000000
3.400000 1.000000 0.000000
3.500000 1.000000 0.000000
3.600000 1.000000 0.000000
3.700000 1.000000 0.000000
3.800000 1.000000 0.000000
3.900000 1.000000 0.000000
4.000000 1.000000 0.000000
0.000000 1.100000 0.000000
0.100000 1.100000 0.000000
0.200000 1.100000 0.000000
0.300000 1.100000 0.000000
0.400000 1.100000 0.000000
0.500000 1.100000 0.000000
0.600000 1.100000 0.000000
0.700000 1.100000 0.000000
0.800000 1.100000 0.000000
0.900000 1.100000 0.000000
1.000000 1.100000 0.000000
1.100000 1.100000 0.000000
1.200000 1.100000 0.000000
1.300000 1.100000 0.000000
1.400000 1.100000 0.000000
1.500000 1.100000 0.000000
1.600000 1.100000 0.000000
1.700000 1.100000 0.000000
1.800000 1.100000 0.000000
1.900000 1.100000 0.000000
2.000000 1.100000 0.000000
2.100000 1.100000 0.000000
2.200000 1.100000 0.000000
2.300000 1.100000 0.000000
2.400000 1.100000 0.000000
2.500000 1.100000 0.000000
2.600000 1.100000 0.000000
2.700000 1.100000 0.000000
2.800000 1.100000 0.000000
2.900000 1.100000 0.000000
3.000000 1.100000 0.000000
3.100000 1.100000 0.000000
3.200000 1.100000 0.000000
3.300000 1.100000 0.000000
3.400000 1.100000 0.000000
3.500000 1.100000 0.000000
3.600000 1.100000 0.000000
3.700000 1.100000 0.000000
3.800000 1.100000 0.000000
3.900000 1.100000 0.000000
4.000000 1.100000 0.000000
0.000000 1.200000 0.000000
0.100000 1.200000 0.000000
0.200000 1.200000 0.000000
0.300000 1.200000 0.000000
0.400000 1.200000 0.000000
0.500000 1.200000 0.000000
0.600000 1.200000 0.000000
0.700000 1.200000 0.000000
0.800000 1.200000 0.000000
0.900000 1.200000 0.000000
1.000000 1.200000 0.000000
1.100000 1.200000 0.000000
1.200000 1.200000 0.000000
1.300000 1.200000 0.000000
1.400000 1.200000 0.000000
1.500000 1.200000 0.000000
1.600000 1.200000 0.000000
1.700000 1.200000 0.000000
1.800000 1.200000 0.000000
1.900000 1.200000 0.000000
2.000000 1.200000 0.000000
2.100000 1.200000 0.000000
2.200000 1.200000 0.000000
2.300000 1.200000 0.000000
2.400000 1.200000 0.000000
2.500000 1.200000 0.000000
2.600000 1.200000 0.000000
2.700000 1.200000 0.000000
2.800000 1.200000 0.000000
2.900000 1.200000 0.000000
3.000000 1.200000 0.000000
3.100000 1.200000 0.000000
3.200000 1.200000 0.000000
3.300000 1.200000 0.000000
3.400000 1.200000 0.000000
3.500000 1.200000 0.000000
3.600000 1.200000 0.000000
3.700000 1.200000 0.000000
3.800000 1.200000 0.000000
3.900000 1.200000 0.000000
4.000000 1.200000 0.000000
0.000000 1.300000 0.000000
0.100000 1.300000 0.000000
0.200000 1.300000 0.000000
0.300000 1.300000 0.000000
0.400000 1.300000 0.000000
0.500000 1.300000 0.000000
0.600000 1.300000 0.000000
0.700000 1.300000 0.000000
0.800000 1.300000 0.000000
0.900000 1.300000 0.000000
1.000000 1.300000 0.000000
1.100000 1.300000 0.000000
1.200000 1.300000 0.000000
1.300000 1.300000 0.000000
1.400000 1.300000 0.000000
1.500000 1.300000 0.000000
1.600000 1.300000 0.000000
1.700000 1.300000 0.000000
1.800000 1.300000 0.000000
1.900000 1.300000 0.000000
2.000000 1.300000 0.000000
2.100000 1.300000 0.000000
2.200000 1.300000 0.000000
2.300000 1.300000 0.000000
2.400000 1.300000 0.000000
2.500000 1.300000 0.000000
2.600000 1.300000 0.000000
2.700000 1.300000 0.000000
2.800000 1.300000 0.000000
2.900000 1.300000 0.000000
3.000000 1.300000 0.000000
3.100000 1.300000 0.000000
3.200000 1.300000 0.000000
3.300000 1.300000 0.000000
3.400000 1.300000 0.000000
3.500000 1.300000 0.000000
3.600000 1.300000 0.000000
3.700000 1.300000 0.000000
3.800000 1.300000 0.000000
3.900000 1.300000 0.000000
4.000000 1.300000 0.000000
0.000000 1.400000 0.000000
0.100000 1.400000 0.000000
0.200000 1.400000 0.000000
0.300000 1.400000 0.000000
0.400000 1.400000 0.000000
0.500000 1.400000 0.000000
0.600000 1.400000 0.000000
0.700000 1.400000 0.000000
0.800000 1.400000 0.000000
0.900000 1.400000 0.000000
1.000000 1.400000 0.000000
1.100000 1.400000 0.000000
1.200000 1.400000 0.000000
1.300000 1.400000 0.000000
1.400000 1.400000 0.000000
1.500000 1.400000 0.000000
1.600000 1.400000 0.000000
1.700000 1.400000 0.000000
1.800000 1.400000 0.000000
1.900000 1.400000 0.000000
2.000000 1.400000 0.000000
2.100000 1.400000 0.000000
2.200000 1.400000 0.000000
2.300000 1.400000 0.000000
2.400000 1.400000 0.000000
2.500000 1.400000 0.000000
2.600000 1.400000 0.000000
2.700000 1.400000 0.000000
2.800000 1.400000 0.000000
2.900000 1.400000 0.000000
3.000000 1.400000 0.000000
3.100000 1.400000 0.000000
3.200000 1.400000 0.000000
3.300000 1.400000 0.000000
3.400000 1.400000 0.000000
3.500000 1.400000 0.000000
3.600000 1.400000 0.000000
3.700000 1.400000 0.000000
3.800000 1.400000 0.000000
3.900000 1.400000 0.000000
4.000000 1.400000 0.000000
0.000000 1.500000 0.000000
0.100000 1.500000 0.000000
0.200000 1.500000 0.000000
0.300000 1.500000 0.000000
0.400000 1.500000 0.000000
0.500000 1.500000 0.000000
0.600000 1.500000 0.000000
0.700000 1.500000 0.000000
0.800000 1.500000 0.000000
0.900000 1.500000 0.000000
1.000000 1.500000 0.000000
1.100000 1.500000 0.000000
1.200000 1.500000 0.000000
1.300000 1.500000 0.000000
1.400000 1.500000 0.000000
1.500000 1.500000 0.000000
1.600000 1.500000 0.000000
1.700000 1.500000 0.000000
1.800000 1.500000 0.000000
1.900000 1.500000 0.000000
2.000000 1.500000 0.000000
2.100000 1.500000 0.000000
2.200000 1.500000 0.000000
2.300000 1.500000 0.000000
2.400000 1.500000 0.000000
2.500000 1.500000 0.000000
2.600000 1.500000 0.000000
2.700000 1.500000 0.000000
2.800000 1.500000 0.000000
2.900000 1.500000 0.000000
3.000000 1.500000 0.000000
3.100000 1.500000 0.000000
3.200000 1.500000 0.000000
3.300000 1.500000 0.000000
3.400000 1.500000 0.000000
3.500000 1.500000 0.000000
3.600000 1.500000 0.000000
3.700000 1.500000 0.000000
3.800000 1.500000 0.000000
3.900000 1.500000 0.000000
4.000000 1.500000 0.000000
0.000000 1.600000 0.000000
0.100000 1.600000 0.000000
0.200000 1.600000 0.000000
0.300000 1.600000 0.000000
0.400000 1.600000 0.000000
0.500000 1.600000 0.000000
0.600000 1.600000 0.000000
0.700000 1.600000 0.000000
0.800000 1.600000 0.000000
0.900000 1.600000 0.000000
1.000000 1.600000 0.000000
1.100000 1.600000 0.000000
1.200000 1.600000 0.000000
1.300000 1.600000 0.000000
1.400000 1.600000 0.000000
1.500000 1.600000 0.000000
1.600000 1.600000 0.000000
1.700000 1.600000 0.000000
1.800000 1.600000 0.000000
1.900000 1.600000 0.000000
2.000000 1.600000 0.000000
2.100000 1.600000 0.000000
2.200000 1.600000 0.000000
2.300000 1.600000 0.000000
2.400000 1.600000 0.000000
2.500000 1.600000 0.000000
2.600000 1.600000 0.000000
2.700000 1.600000 0.000000
2.800000 1.600000 0.000000
2.900000 1.600000 0.000000
3.000000 1.600000 0.000000
3.100000 1.600000 0.000000
3.200000 1.600000 0.000000
3.300000 1.600000 0.000000
3.400000 1.600000 0.000000
3.500000 1.600000 0.000000
3.600000 1.600000 0.000000
3.700000 1.600000 0.000000
3.800000 1.600000 0.000000
3.900000 1.600000 0.000000
4.000000 1.600000 0.000000
0.000000 1.700000 0.000000
0.100000 1.700000 0.000000
0.200000 1.700000 0.000000
0.300000 1.700000 0.000000
0.400000 1.700000 0.000000
0.500000 1.700000 0.000000
0.600000 1.700000 0.000000
0.700000 1.700000 0.000000
0.800000 1.700000 0.000000
0.900000 1.700000 0.000000
1.000000 1.700000 0.000000
1.100000 1.700000 0.000000
1.200000 1.700000 0.000000
1.300000 1.700000 0.000000
1.400000 1.700000 0.000000
1.500000 1.700000 0.000000
1.600000 1.700000 0.000000
1.700000 1.700000 0.000000
1.800000 1.700000 0.000000
1.900000 1.700000 0.000000
2.000000 1.700000 0.000000
2.100000 1.700000 0.000000
2.200000 1.700000 0.000000
2.300000 1.700000 0.000000
2.400000 1.700000 0.000000
2.500000 1.700000 0.000000
2.600000 1.700000 0.000000
2.700000 1.700000 0.000000
2.800000 1.700000 0.000000
2.900000 1.700000 0.000000
3.000000 1.700000 0.000000
3.100000 1.700000 0.000000
3.200000 1.700000 0.000000
3.300000 1.700000 0.000000
3.400000 1.700000 0.000000
3.500000 1.700000 0.000000
3.600000 1.700000 0.000000
3.700000 1.700000 0.000000
3.800000 1.700000 0.000000
3.900000 1.700000 0.000000
4.000000 1.700000 0.000000
0.000000 1.800000 0.000000
0.100000 1.800000 0.000000
0.200000 1.800000 0.000000
0.300000 1.800000 0.000000
0.400000 1.800000 0.000000
0.500000 1.800000 0.000000
0.600000 1.800000 0.000000
0.700000 1.800000 0.000000
0.800000 1.800000 0.000000
0.900000 1.800000 0.000000
1.000000 1.800000 0.000000
1.100000 1.800000 0.000000
1.200000 1.800000 0.000000
1.300000 1.800000 0.000000
1.400000 1.800000 0.000000
1.500000 1.800000 0.000000
1.600000 1.800000 0.000000
1.700000 1.800000 0.000000
1.800000 1.800000 0.000000
1.900000 1.800000 0.000000
2.000000 1.800000 0.000000
2.100000 1.800000 0.000000
2.200000 1.800000 0.000000
2.300000 1.800000 0.000000
2.400000 1.800000 0.000000
2.500000 1.800000 0.000000
2.600000 1.800000 0.000000
2.700000 1.800000 0.000000
2.800000 1.800000 0.000000
2.900000 1.800000 0.000000
3.000000 1.800000 0.000000
3.100000 1.800000 0.000000
3.200000 1.800000 0.000000
3.300000 1.800000 0.000000
3.400000 1.800000 0.000000
3.500000 1.800000 0.000000
3.600000 1.800000 0.000000
[...]
CELL_DATA 8000
SCALARS pressure float 1
LOOKUP_TABLE default
-44.1649
-35.8065
-32.0827
-30.1456
-28.9024
-27.9406
-27.0953
-26.2881
-25.4705
-24.6056
-23.6653
-22.6361
-21.5257
-20.3585
-19.1607
-17.9525
-16.7521
-15.5817
-14.4706
-13.4478
-12.5248
-11.6939
-10.9367
-10.2326
-9.56431
-8.91894
-8.28766
-7.66479
-7.0468
-6.43156
-5.81782
-5.20488
-4.59234
-3.97997
-3.36767
-2.75539
-2.14309
-1.53077
-0.91842
-0.30609
-43.8203
-35.6319
-31.9831
-30.0819
-28.8568
-27.9039
-27.062
-26.255
-25.4362
-24.5704
-23.6312
-22.6063
-21.5028
-20.3442
-19.1554
-17.9564
-16.7652
-15.6036
-14.4997
-13.4809
-12.5582
-11.7248
-10.9632
-10.2543
-9.58145
-8.93206
-8.29749
-7.67203
-7.05206
-6.43533
-5.82051
-5.20677
-4.59366
-3.98089
-3.3683
-2.75581
-2.14337
-1.53094
-0.91851
-0.306113
-43.1376
-35.2894
-31.7904
-29.9605
-28.7712
-27.8359
-27.0008
-26.1942
-25.3732
-24.5057
-23.5686
-22.5514
-21.4608
-20.3179
-19.1458
-17.9637
-16.7896
-15.6443
-14.5536
-13.542
-12.6199
-11.7817
-11.0123
-10.2946
-9.61322
-8.95643
-8.31578
-7.68551
-7.06186
-6.44238
-5.82552
-5.21031
-4.59613
-3.98261
-3.36948
-2.75661
-2.14389
-1.53126
-0.918681
-0.306159
-42.1312
-34.7935
-31.5184
-29.7938
-28.6569
-27.7468
-26.9217
-26.1161
-25.2922
-24.4225
-23.488
-22.4806
-21.4066
-20.284
-19.1335
-17.9736
-16.8216
-15.6974
-14.6238
-13.6217
-12.7004
-11.8561
-11.0766
-10.3474
-9.65504
-8.98858
-8.33994
-7.70335
-7.07484
-6.45171
-5.83217
-5.215
-4.59942
-3.98488
-3.37104
-2.75767
-2.14458
-1.53169
-0.918906
-0.30622
-40.8264
-34.1689
-31.1892
-29.601
-28.5301
-27.6512
-26.8381
-26.034
-25.2069
-24.3347
-23.4027
-22.4054
-21.3488
-20.2479
-19.1208
-17.9846
-16.8566
-15.755
-14.6996
-13.7077
-12.7874
-11.9368
-11.1467
-10.4053
-9.70105
-9.02407
-8.36668
-7.72313
-7.08925
-6.46208
-5.83955
-5.22021
-4.60306
-3.9874
-3.37277
-2.75883
-2.14535
-1.53216
-0.919155
-0.306287
-39.2654
-33.4544
-30.8354
-29.4081
-28.4116
-27.5661
-26.765
-25.9618
-25.1311
-24.2559
-23.3256
-22.3372
-21.2962
-20.215
-19.1095
-17.9958
-16.8902
-15.8095
-14.7708
-13.7883
-12.8693
-12.0132
-11.2135
-10.4607
-9.74529
-9.05832
-8.39256
-7.74231
-7.10324
-6.47215
-5.84671
-5.22526
-4.60658
-3.98985
-3.37444
-2.75996
-2.14609
-1.53261
-0.919394
-0.306351
-37.518
-32.7092
-30.5023
-29.2482
-28.3254
-27.5093
-26.7166
-25.9118
-25.076
-24.1967
-23.2666
-22.2843
-21.2549
-20.1893
-19.1013
-18.006
-16.9187
-15.8549
-14.8297
-13.8549
-12.9372
-12.0768
-11.2694
-10.5074
-9.78272
-9.0874
-8.41459
-7.75865
-7.11516
-6.48073
-5.85282
-5.22955
-4.60958
-3.99191
-3.37586
-2.76091
-2.1467
-1.53299
-0.919597
-0.306407
-35.7011
-32.0226
-30.2502
-29.1597
-28.2954
-27.496
-26.7031
-25.8918
-25.0481
-24.1629
-23.2307
-22.251
-21.2287
-20.1732
-19.0971
-18.0144
-16.9398
-15.8879
-14.8719
-13.9025
-12.9857
-12.1226
-11.3097
-10.5413
-9.80997
-9.10862
-8.43068
-7.7706
-7.12388
-6.487
-5.85727
-5.23268
-4.61175
-3.99341
-3.37687
-2.76159
-2.14715
-1.53327
-0.919745
-0.306454
-34.0197
-31.525
-30.1491
-29.1763
-28.3363
-27.5319
-26.7264
-25.9021
-25.0475
-24.1544
-23.2179
-22.2375
-21.2176
-20.1667
-19.0966
-18.0205
-16.9527
-15.9071
-14.8961
-13.9296
-13.0133
-12.1485
-11.3327
-10.5606
-9.8255
-9.12071
-8.43984
-7.77739
-7.12882
-6.49053
-5.85977
-5.23443
-4.61296
-3.99423
-3.37743
-2.76195
-2.14738
-1.53341
-0.91983
-0.306494
-32.8883
-31.388
-30.2428
-29.2936
-28.4301
-27.5983
-26.771
-25.931
-25.0655
-24.1649
-23.2237
-22.2406
-21.2194
-20.1682
-19.0985
-18.0232
-16.9565
-15.9119
-14.9018
-13.9358
-13.0195
-12.1543
-11.3377
-10.5646
-9.82867
-9.1231
-8.44158
-7.77862
-7.12967
-6.49111
-5.86014
-5.23467
-4.61311
-3.99433
-3.37749
-2.76199
-2.1474
-1.53342
-0.919837
-0.306512
-37.2501
-34.3469
-31.9388
-30.2353
-28.9844
-27.98
-27.0972
-26.2612
-25.422
-24.5428
-23.597
-22.572
-21.4744
-20.3268
-19.1521
-17.9683
-16.7914
-15.641
-14.5433
-13.5258
-12.6004
-11.7613
-10.9928
-10.2771
-9.59832
-8.94425
-8.30615
-7.67811
-7.05631
-6.43831
-5.8226
-5.20825
-4.5947
-3.98163
-3.36883
-2.75619
-2.14363
-1.53113
-0.918649
-0.306202
-37.0422
-34.2014
-31.8426
-30.1704
-28.938
-27.9436
-27.0653
-26.2305
-25.391
-24.5116
-23.5673
-22.5462
-21.4547
-20.3145
-19.1475
-17.9714
-16.8024
-15.6596
-14.5683
-13.5546
-12.6298
-11.7887
-11.0167
-10.2968
-9.61406
-8.95642
-8.31534
-7.68494
-7.0613
-6.44192
-5.82518
-5.21007
-4.59599
-3.98252
-3.36944
-2.7566
-2.14391
-1.53129
-0.918737
-0.306223
-36.6325
-33.9168
-31.6564
-30.0466
-28.8506
-27.8758
-27.0064
-26.174
-25.3339
-24.4542
-23.5124
-22.4985
-21.4184
-20.2918
-19.139
-17.9773
-16.8229
-15.6942
-14.6147
-13.6079
-12.6841
-11.8393
-11.0608
-10.3335
-9.64325
-8.97902
-8.33244
-7.69764
-7.0706
-6.44864
-5.82998
-5.21348
-4.59838
-3.98419
-3.37059
-2.75738
-2.14442
-1.53161
-0.918902
-0.306262
-36.0347
-33.5078
-31.3941
-29.8762
-28.7333
-27.7867
-26.9301
-26.1012
-25.2605
-24.38
-23.4414
-22.4366
-21.3714
-20.2624
-19.1281
-17.9853
-16.8498
-15.7396
-14.6756
-13.6777
-12.7552
-11.9057
-11.1188
-10.3815
-9.68168
-9.00884
-8.35504
-7.71445
-7.08291
-6.45754
-5.83635
-5.21799
-4.60155
-3.9864
-3.37211
-2.75841
-2.14509
-1.53203
-0.919121
-0.306313
-35.2731
-32.9986
-31.0777
-29.6781
-28.6021
-27.6903
-26.8491
-26.0245
-25.183
-24.3018
-23.3662
-22.3709
-21.3213
-20.231
-19.1168
-17.9943
-16.8795
-15.7891
-14.7415
-13.7531
-12.8323
-11.9778
-11.182
-10.4343
-9.72395
-9.04171
-8.38001
-7.73305
-7.09655
-6.46741
-5.84341
-5.223
-4.60506
-3.98884
-3.37379
-2.75954
-2.14584
-1.53249
-0.91936
-0.30637
-34.3886
-32.4275
-30.7395
-29.4782
-28.4774
-27.6032
-26.7778
-25.9572
-25.1144
-24.2318
-23.2985
-22.3114
-21.2755
-20.2025
-19.1068
-18.0035
-16.908
-15.8359
-14.8033
-13.8238
-12.9047
-12.0459
-11.242
-10.4845
-9.76442
-9.0733
-8.40404
-7.75098
-7.1097
-6.47692
-5.85022
-5.22781
-4.60843
-3.99118
-3.37539
-2.76063
-2.14655
-1.53292
-0.919589
-0.306423
-33.4498
-31.852
-30.4234
-29.3088
-28.3827
-27.5428
-26.7299
-25.9109
-25.0654
-24.1802
-23.2476
-22.266
-21.2403
-20.1805
-19.0996
-18.0119
-16.932
-15.8746
-14.8539
-13.8815
-12.9639
-12.1019
-11.2915
-10.5262
-9.79811
-9.09965
-8.42413
-7.76596
-7.12069
-6.48487
-5.85588
-5.23181
-4.61123
-3.99311
-3.37672
-2.76151
-2.14713
-1.53328
-0.919774
-0.306467
-32.5666
-31.354
-30.1861
-29.2069
-28.3417
-27.5245
-26.7162
-25.894
-25.043
-24.1532
-23.219
-22.2396
-21.2195
-20.1677
-19.0963
-18.0186
-16.9489
-15.9012
-14.8883
-13.9206
-13.0041
-12.14
-11.3254
-10.5548
-9.82119
-9.1177
-8.43786
-7.77618
-7.12816
-6.49024
-5.8597
-5.23449
-4.61309
-3.99438
-3.37758
-2.76209
-2.1475
-1.5335
-0.919893
-0.306501
-31.9
-31.0413
-30.0924
-29.2082
-28.3728
-27.5575
-26.7415
-25.9096
-25.0498
-24.1533
-23.215
-22.2341
-21.2147
-20.1652
-19.0969
-18.0229
-16.9572
-15.9133
-14.9036
-13.9379
-13.0217
-12.1566
-11.3401
-10.5671
-9.83104
-9.1253
-8.44356
-7.78035
-7.13114
-6.49233
-5.86114
-5.23546
-4.61374
-3.99481
-3.37785
-2.76226
-2.1476
-1.53356
-0.919921
-0.306518
-31.6535
-31.0422
-30.2054
-29.3365
-28.4806
-27.6393
-26.8018
-25.9543
-25.0837
-24.1796
-23.2355
-22.25
-21.2264
-20.173
-19.101
-18.0237
-16.955
-15.9087
-14.8973
-13.9304
-13.0139
-12.149
-11.333
-10.5608
-9.82566
-9.12082
-8.43992
-7.77744
-7.12886
-6.49056
-5.85979
-5.23444
-4.61297
-3.99424
-3.37744
-2.76196
-2.14739
-1.53342
-0.919832
-0.306495
-33.5321
-32.5284
-31.1739
-29.9278
-28.8603
-27.9302
-27.0816
-26.2661
-25.4432
-24.5775
-23.6386
-22.6084
-21.495
-20.3366
-19.1594
-17.9764
-16.7959
-15.6317
-14.5128
-13.4841
-12.5602
-11.7297
-10.9712
-10.2639
-9.59105
-8.94076
-8.30486
-7.67802
-7.05678
-6.43899
-5.82331
-5.2089
-4.59526
-3.98208
-3.36919
-2.75646
-2.14384
-1.53128
-0.918756
-0.306261
-33.3956
-32.418
-31.0924
-29.8688
-28.8161
-27.8944
-27.0494
-26.2343
-25.4103
-24.5436
-23.6059
-22.5802
-21.4742
-20.3239
-19.1544
-17.979
-16.8065
-15.6508
-14.5398
-13.5158
-12.5925
-11.7594
-10.9966
-10.2846
-9.60728
-8.95317
-8.31417
-7.68487
-7.06177
-6.44258
-5.82587
-5.2107
-4.59652
-3.98296
-3.36979
-2.75687
-2.14411
-1.53144
-0.918842
-0.306278
-33.1281
-32.2033
-30.9353
-29.7563
-28.733
-27.8279
-26.99
-26.1759
-25.3496
-24.4809
-23.5448
-22.5273
-21.4353
-20.3002
-19.1452
-17.9838
-16.8261
-15.6864
-14.5905
-13.5751
-12.6525
-11.8144
-11.0437
-10.3229
-9.63739
-8.97621
-8.33144
-7.69762
-7.07105
-6.44927
-5.83063
-5.21407
-4.59889
-3.98461
-3.37092
-2.75764
-2.14461
-1.53175
-0.919002
-0.306311
-32.7423
-31.8981
-30.7161
-29.6026
-28.6218
-27.7406
-26.9132
-26.1006
-25.2713
-24.3997
-23.4654
-22.4581
-21.3847
-20.2695
-19.1333
-17.9902
-16.8518
-15.7333
-14.6575
-13.6531
-12.7312
-11.8863
-11.1052
-10.3731
-9.67691
-9.00652
-8.35421
-7.71444
-7.0833
-6.45809
-5.83693
-5.21852
-4.60201
-3.98677
-3.37241
-2.75864
-2.14527
-1.53216
-0.919211
-0.306355
-32.2608
-31.5257
-30.456
-29.4261
-28.4984
-27.6466
-26.8319
-26.0215
-25.1893
-24.3146
-23.3821
-22.3854
-21.3309
-20.2367
-19.1208
-17.9977
-16.8804
-15.7843
-14.7292
-13.7363
-12.8154
-11.9638
-11.1719
-10.4277
-9.72011
-9.03976
-8.37923
-7.73295
-7.09681
-6.46782
-5.84387
-5.22343
-4.60544
-3.98916
-3.37405
-2.75975
-2.146
-1.5326
-0.91944
-0.306401
-31.7225
-31.1222
-30.1856
-29.2515
-28.3828
-27.5624
-26.7608
-25.9526
-25.1175
-24.2398
-23.3088
-22.321
-21.2825
-20.2069
-19.1098
-18.0055
-16.9079
-15.832
-14.7948
-13.8123
-12.8928
-12.0357
-11.2342
-10.4791
-9.76099
-9.07132
-8.40305
-7.7506
-7.10968
-6.4771
-5.85047
-5.22809
-4.6087
-3.99141
-3.37559
-2.76079
-2.14667
-1.53302
-0.919654
-0.306443
-31.1922
-30.7404
-29.9457
-29.1096
-28.2979
-27.5056
-26.7143
-25.9065
-25.0676
-24.1863
-23.2554
-22.2736
-21.2462
-20.1844
-19.1019
-18.0127
-16.9306
-15.8703
-14.8465
-13.872
-12.954
-12.0929
-11.2842
-10.5206
-9.79414
-9.09698
-8.42244
-7.76495
-7.12014
-6.48462
-5.85581
-5.23184
-4.61131
-3.99321
-3.37682
-2.76161
-2.14721
-1.53334
-0.919819
-0.306476
-30.7686
-30.451
-29.7869
-29.0354
-28.2674
-27.4925
-26.7041
-25.8925
-25.0476
-24.1612
-23.2283
-22.2484
-21.2265
-20.1724
-19.0984
-18.0182
-16.9456
-15.8948
-14.8791
-13.9096
-12.9926
-12.1292
-11.316
-10.5471
-9.81528
-9.11331
-8.43472
-7.774
-7.12669
-6.48928
-5.8591
-5.23412
-4.61288
-3.99428
-3.37753
-2.76208
-2.1475
-1.53352
-0.919908
-0.306497
-30.5677
-30.3337
-29.7644
-29.0644
-28.3125
-27.5352
-26.7377
-25.9157
-25.0616
-24.1682
-23.2306
-22.2484
-21.226
-20.1725
-19.0998
-18.0212
-16.9508
-15.9025
-14.8893
-13.9213
-13.0046
-12.1404
-11.3257
-10.555
-9.82135
-9.11781
-8.43795
-7.77625
-7.1282
-6.49027
-5.85972
-5.2345
-4.6131
-3.99439
-3.37758
-2.76209
-2.1475
-1.5335
-0.919893
-0.3065
-30.6484
-30.4586
-29.9342
-29.2296
-28.4485
-27.6397
-26.817
-25.977
-25.1106
-24.2083
-23.2635
-22.2747
-21.2458
-20.1855
-19.106
-18.0208
-16.9444
-15.8912
-14.8743
-13.9043
-12.987
-12.1235
-11.3104
-10.5418
-9.81032
-9.10887
-8.43086
-7.77073
-7.12397
-6.48706
-5.85732
-5.23271
-4.61178
-3.99343
-3.37689
-2.76159
-2.14715
-1.53327
-0.919747
-0.306454
-31.59
-31.1714
-30.3797
-29.4978
-28.6404
-27.8324
-27.0628
-26.308
-25.5388
-24.7191
-23.8058
-22.7593
-21.5847
-20.381
-19.1802
-17.9818
-16.7765
-15.5615
-14.3683
-13.3076
-12.3948
-11.596
-10.8722
-10.1945
-9.54415
-8.90979
-8.28475
-7.6651
-7.04856
-6.4338
-5.82006
-5.20688
-4.59402
-3.98133
-3.36874
-2.75621
-2.1437
-1.53122
-0.918748
-0.30629
-31.4891
-31.0861
-30.3126
-29.4461
-28.5993
-27.7969
-27.0286
-26.2718
-25.4986
-24.6754
-23.762
-22.7219
-21.5588
-20.366
-19.174
-17.9837
-16.7874
-15.5839
-14.4036
-13.3502
-12.4375
-11.6339
-10.9034
-10.219
-9.56274
-8.92361
-8.29486
-7.67242
-7.0538
-6.43753
-5.82268
-5.20872
-4.5953
-3.98222
-3.36935
-2.75661
-2.14397
-1.53138
-0.918832
-0.306305
-31.2924
-30.9212
-30.1842
-29.3482
-28.5224
-27.7311
-26.9654
-26.2048
-25.424
-24.5931
-23.6783
-22.6492
-21.5096
-20.3379
-19.1626
-17.9869
-16.8075
-15.6264
-14.4721
-13.4322
-12.5183
-11.7048
-10.9614
-10.2643
-9.59716
-8.94921
-8.31362
-7.68599
-7.06354
-6.44445
-5.82757
-5.21214
-4.59768
-3.98386
-3.37048
-2.75737
-2.14447
-1.53169
-0.918987
-0.306334
-31.0116
-30.6899
-30.0072
-29.216
-28.4204
-27.6453
-26.8839
-26.1186
-25.3274
-24.4856
-23.5669
-22.5511
-21.4451
-20.3018
-19.1478
-17.9909
-16.8333
-15.6822
-14.5653
-13.5418
-12.6247
-11.7974
-11.037
-10.3235
-9.64216
-8.98276
-8.33824
-7.70384
-7.07634
-6.45356
-5.834
-5.21665
-4.60082
-3.98603
-3.37196
-2.75837
-2.14512
-1.53209
-0.91919
-0.306371
-30.668
-30.4138
-29.8017
-29.0671
-28.3091
-27.5541
-26.7985
-26.0287
-25.2271
-24.3747
-23.453
-22.4508
-21.3764
-20.2626
-19.1321
-17.9964
-16.8629
-15.7434
-14.662
-13.6555
-12.7362
-11.8956
-11.1178
-10.3872
-9.69095
-9.01928
-8.36512
-7.72336
-7.09037
-6.46354
-5.84104
-5.22159
-4.60425
-3.9884
-3.37357
-2.75946
-2.14583
-1.53252
-0.919409
-0.30641
-30.2979
-30.1267
-29.5963
-28.9251
-28.2081
-27.4743
-26.7251
-25.9515
-25.1409
-24.2797
-23.3563
-22.3656
-21.3155
-20.2267
-19.118
-18.0028
-16.8923
-15.8001
-14.7465
-13.7547
-12.835
-11.9842
-11.1919
-10.4463
-9.73647
-9.05353
-8.39041
-7.74176
-7.10359
-6.47294
-5.84767
-5.22622
-4.60746
-3.9906
-3.37507
-2.76046
-2.14648
-1.53291
-0.919609
-0.306443
-29.9618
-29.8761
-29.4281
-28.8186
-28.1395
-27.4238
-26.6788
-25.9009
-25.0822
-24.2137
-23.2886
-22.3053
-21.2708
-20.1998
-19.1078
-18.009
-16.9163
-15.8443
-14.8097
-13.8288
-12.9098
-12.0523
-11.2496
-10.4927
-9.77252
-9.08074
-8.41052
-7.75638
-7.11407
-6.48037
-5.85288
-5.22984
-4.60996
-3.99231
-3.37623
-2.76123
-2.14697
-1.53321
-0.919756
-0.306466
-29.7466
-29.7215
-29.3406
-28.7794
-28.126
-27.419
-26.6722
-25.8871
-25.0597
-24.1841
-23.2558
-22.2749
-21.2477
-20.1858
-19.1031
-18.0136
-16.9313
-15.8708
-14.8469
-13.8724
-12.9542
-12.0931
-11.2844
-10.5208
-9.79425
-9.09707
-8.4225
-7.765
-7.12018
-6.48464
-5.85584
-5.23186
-4.61132
-3.99322
-3.37682
-2.76161
-2.14721
-1.53334
-0.91982
-0.306476
-29.7369
-29.7195
-29.3775
-28.839
-28.1883
-27.4727
-26.7135
-25.9162
-25.0782
-24.1943
-23.2605
-22.2768
-21.2489
-20.1871
-19.1046
-18.0156
-16.9347
-15.8765
-14.8553
-13.8826
-12.9647
-12.1025
-11.292
-10.5266
-9.79838
-9.09985
-8.42428
-7.76608
-7.12077
-6.48493
-5.85593
-5.23184
-4.61125
-3.99313
-3.37673
-2.76152
-2.14713
-1.53328
-0.919775
-0.306466
-29.9199
-29.8993
-29.5785
-29.0261
-28.3416
-27.5916
-26.8055
-25.9894
-25.1386
-24.2454
-23.3036
-22.312
-21.2755
-20.2044
-19.1123
-18.0139
-16.9244
-15.8591
-14.8327
-13.8571
-12.9388
-12.078
-11.2703
-10.5081
-9.78322
-9.08776
-8.41485
-7.75885
-7.1153
-6.48083
-5.85289
-5.22961
-4.60962
-3.99194
-3.37588
-2.76092
-2.14671
-1.533
-0.919599
-0.306406
-30.5531
-30.2756
-29.7453
-29.0967
-28.4131
-27.7319
-27.063
-26.4004
-25.7254
-24.9997
-24.1526
-23.079
-21.7318
-20.4393
-19.2059
-17.9929
-16.7567
-15.4487
-14.0596
-12.9437
-12.0744
-11.3497
-10.6958
-10.073
-9.46226
-8.85535
-8.24885
-7.64155
-7.03317
-6.42377
-5.81353
-5.20264
-4.59128
-3.97957
-3.36762
-2.7555
-2.14327
-1.53098
-0.918644
-0.306296
-30.4699
-30.2058
-29.6889
-29.0512
-28.3744
-27.6956
-27.0245
-26.3557
-25.6716
-24.9372
-24.0876
-23.0246
-21.6986
-20.4218
-19.1985
-17.9935
-16.7674
-15.4757
-14.1103
-13.0078
-12.1372
-11.4029
-10.7375
-10.1041
-9.48492
-8.87159
-8.26038
-7.64969
-7.03888
-6.42776
-5.8163
-5.20456
-4.5926
-3.98047
-3.36823
-2.75591
-2.14354
-1.53114
-0.918726
-0.30631
-30.3082
-30.0717
-29.5817
-28.9655
-28.3024
-27.6284
-26.9535
-26.2726
-25.5701
-24.8156
-23.9554
-22.9097
-21.6332
-20.3889
-19.1846
-17.9939
-16.7862
-15.5282
-14.2177
-13.1381
-12.2595
-11.5038
-10.8152
-10.1618
-9.52685
-8.90166
-8.28175
-7.66477
-7.04946
-6.43515
-5.82145
-5.20813
-4.59506
-3.98215
-3.36937
-2.75667
-2.14404
-1.53144
-0.918879
-0.306336
-30.0792
-29.8858
-29.4359
-28.8512
-28.208
-27.5416
-26.862
-26.1654
-25.4375
-24.6526
-23.7698
-22.7384
-21.5485
-20.3492
-19.1672
-17.992
-16.8056
-15.5934
-14.3783
-13.3219
-12.4242
-11.6365
-10.9165
-10.2369
-9.58147
-8.9409
-8.30969
-7.68452
-7.06335
-6.44486
-5.8282
-5.2128
-4.59827
-3.98436
-3.37087
-2.75767
-2.14468
-1.53184
-0.919077
-0.306369
-29.8031
-29.6685
-29.2705
-28.7254
-28.1071
-27.4505
-26.7671
-26.0546
-25.3016
-24.4885
-23.588
-22.5748
-21.4552
-20.3033
-19.1481
-17.9928
-16.8331
-15.6705
-14.5337
-13.5033
-12.5915
-11.7743
-11.0234
-10.317
-9.64022
-8.98335
-8.34003
-7.70602
-7.07847
-6.45543
-5.83555
-5.21788
-4.60177
-3.98675
-3.37248
-2.75875
-2.14538
-1.53226
-0.919288
-0.306402
-29.5139
-29.4509
-29.1121
-28.6107
-28.0189
-27.3731
-26.6868
-25.9607
-25.1873
-24.3533
-23.443
-22.446
-21.372
-20.2587
-19.1301
-17.9968
-16.8645
-15.7435
-14.6586
-13.6509
-12.7329
-11.8947
-11.1192
-10.39
-9.69437
-9.02276
-8.36831
-7.7261
-7.0926
-6.4653
-5.8424
-5.22261
-4.60501
-3.98895
-3.37397
-2.75974
-2.14602
-1.53264
-0.919477
-0.306429
-29.2676
-29.2761
-28.9942
-28.5333
-27.9649
-27.3272
-26.6374
-25.8997
-25.1105
-24.262
-23.3459
-22.3595
-21.3117
-20.2243
-19.1164
-18.0017
-16.8915
-15.7996
-14.7462
-13.7545
-12.8349
-11.9842
-11.1919
-10.4463
-9.73651
-9.05356
-8.39044
-7.74179
-7.10361
-6.47296
-5.84768
-5.22623
-4.60747
-3.99061
-3.37508
-2.76046
-2.14648
-1.53291
-0.919609
-0.306443
-29.1418
-29.1948
-28.9543
-28.5218
-27.9662
-27.329
-26.6318
-25.8822
-25.0799
-24.2203
-23.2991
-22.3166
-21.2805
-20.2061
-19.1095
-18.0055
-16.908
-15.8321
-14.795
-13.8125
-12.893
-12.0358
-11.2344
-10.4793
-9.76113
-9.07144
-8.40315
-7.75067
-7.10974
-6.47714
-5.85051
-5.22812
-4.60872
-3.99143
-3.3756
-2.7608
-2.14668
-1.53302
-0.919655
-0.306443
-29.2023
-29.2485
-29.0266
-28.6024
-28.0411
-27.3906
-26.678
-25.9141
-25.0993
-24.23
-23.3024
-22.3171
-21.2811
-20.2072
-19.1106
-18.0065
-16.9102
-15.8376
-14.8046
-13.8248
-12.9055
-12.0465
-11.2425
-10.4849
-9.76474
-9.07354
-8.40424
-7.75112
-7.10981
-6.47701
-5.85028
-5.22786
-4.60847
-3.9912
-3.37541
-2.76064
-2.14655
-1.53293
-0.91959
-0.306422
-29.4065
-29.4446
-29.2379
-28.7973
-28.2015
-27.5166
-26.7776
-25.9956
-25.1688
-24.2907
-23.355
-22.3608
-21.3143
-20.2286
-19.1196
-18.0032
-16.8956
-15.8135
-14.7737
-13.7905
-12.871
-12.0145
-11.2144
-10.4615
-9.74584
-9.05873
-8.39287
-7.74254
-7.10341
-6.47228
-5.84681
-5.22533
-4.60663
-3.98988
-3.37447
-2.75998
-2.1461
-1.53262
-0.919398
-0.30635
-29.9717
-29.7046
-29.289
-28.7793
-28.2244
-27.6573
-27.0969
-26.552
-26.0195
-25.4689
-24.7958
-23.7286
-21.8562
-20.4547
-19.2169
-18.0231
-16.7929
-15.3843
-13.4275
-12.2739
-11.551
-10.9818
-10.4478
-9.90853
-9.35395
-8.78418
-8.20212
-7.61087
-7.01303
-6.41054
-5.80485
-5.19695
-4.58755
-3.97713
-3.36603
-2.75448
-2.14264
-1.53061
-0.918473
-0.306286
-29.8972
-29.6438
-29.2395
-28.7378
-28.1868
-27.6187
-27.0519
-26.4948
-25.9452
-25.3769
-24.6974
-23.6522
-21.8197
-20.4373
-19.2093
-18.0221
-16.8009
-15.4118
-13.4992
-12.3722
-11.6453
-11.0579
-10.5043
-9.94881
-9.38208
-8.80365
-8.21553
-7.62009
-7.01935
-6.41488
-5.80781
-5.19897
-4.58893
-3.97807
-3.36666
-2.7549
-2.14291
-1.53077
-0.918554
-0.306299
-29.753
-29.5276
-29.146
-28.6603
-28.1171
-27.5475
-26.9685
-26.3873
-25.8012
-25.1881
-24.4754
-23.4589
-21.7424
-20.4055
-19.1952
-18.0179
-16.8119
-15.4673
-13.6814
-12.5939
-11.8388
-11.2058
-10.611
-10.0238
-9.43416
-8.83963
-8.24032
-7.63714
-7.03106
-6.42291
-5.81331
-5.20273
-4.59148
-3.9798
-3.36783
-2.75568
-2.14341
-1.53108
-0.918706
-0.306323
-29.5499
-29.3678
-29.0203
-28.5582
-28.0268
-27.4558
-26.8611
-26.2475
-25.6088
-24.9204
-24.1199
-23.0786
-21.6704
-20.3854
-19.1811
-18.0006
-16.7948
-15.4956
-14.0406
-12.9489
-12.1134
-11.4041
-10.7508
-10.1213
-9.50187
-8.88648
-8.27267
-7.65943
-7.04639
-6.43343
-5.82052
-5.20765
-4.59483
-3.98207
-3.36935
-2.75669
-2.14406
-1.53147
-0.918901
-0.306353
-29.307
-29.1839
-28.8806
-28.4482
-27.9319
-27.3609
-26.7506
-26.1045
-25.4156
-24.6619
-23.8009
-22.7721
-21.5574
-20.3465
-19.1635
-17.9905
-16.8028
-15.5769
-14.3313
-13.2682
-12.3798
-11.6051
-10.8961
-10.2244
-9.57419
-8.93689
-8.30764
-7.6836
-7.06303
-6.44485
-5.82833
-5.21298
-4.59845
-3.98451
-3.37099
-2.75777
-2.14476
-1.53189
-0.919108
-0.306382
-29.0567
-29.0051
-28.7518
-28.3519
-27.8519
-27.2819
-26.658
-25.985
-25.2575
-24.4603
-23.5697
-22.5624
-21.4463
-20.2968
-19.1433
-17.9893
-16.8307
-15.6688
-14.5325
-13.5025
-12.5911
-11.7741
-11.0233
-10.3169
-9.64018
-8.98334
-8.34003
-7.70603