# vtk DataFile Version 2.0
I need something to put here
ASCII

DATASET STRUCTURED_GRID
DIMENSIONS 15 11 21
POINTS 3465 float
0.000000 0.000000 0.000000
0.100000 0.000000 0.000000
0.200000 0.000000 0.000000
0.300000 0.000000 0.000000
0.400000 0.000000 0.000000
0.500000 0.000000 0.000000
0.600000 0.000000 0.000000
0.700000 0.000000 0.000000
0.800000 0.000000 0.000000
0.900000 0.000000 0.000000
1.000000 0.000000 0.000000
1.100000 0.000000 0.000000
1.200000 0.000000 0.000000
1.300000 0.000000 0.000000
1.400000 0.000000 0.000000
0.000000 0.100000 0.000000
0.100000 0.100000 0.000000
0.200000 0.100000 0.000000
0.300000 0.100000 0.000000
0.400000 0.100000 0.000000
0.500000 0.100000 0.000000
0.600000 0.100000 0.000000
0.700000 0.100000 0.000000
0.800000 0.100000 0.000000
0.900000 0.100000 0.000000
1.000000 0.100000 0.000000
1.100000 0.100000 0.000000
1.200000 0.100000 0.000000
1.300000 0.100000 0.000000
1.400000 0.100000 0.000000
0.000000 0.200000 0.000000
0.100000 0.200000 0.000000
0.200000 0.200000 0.000000
0.300000 0.200000 0.000000
0.400000 0.200000 0.000000
0.500000 0.200000 0.000000
0.600000 0.200000 0.000000
0.700000 0.200000 0.000000
0.800000 0.200000 0.000000
0.900000 0.200000 0.000000
1.000000 0.200000 0.000000
1.100000 0.200000 0.000000
1.200000 0.200000 0.000000
1.300000 0.200000 0.000000
1.400000 0.200000 0.000000
0.000000 0.300000 0.000000
0.100000 0.300000 0.000000
0.200000 0.300000 0.000000
0.300000 0.300000 0.000000
0.400000 0.300000 0.000000
0.500000 0.300000 0.000000
0.600000 0.300000 0.000000
0.700000 0.300000 0.000000
0.800000 0.300000 0.000000
0.900000 0.300000 0.000000
1.000000 0.300000 0.000000
1.100000 0.300000 0.000000
1.200000 0.300000 0.000000
1.300000 0.300000 0.000000
1.400000 0.300000 0.000000
0.000000 0.400000 0.000000
0.100000 0.400000 0.000000
0.200000 0.400000 0.000000
0.300000 0.400000 0.000000
0.400000 0.400000 0.000000
0.500000 0.400000 0.000000
0.600000 0.400000 0.000000
0.700000 0.400000 0.000000
0.800000 0.400000 0.000000
0.900000 0.400000 0.000000
1.000000 0.400000 0.000000
1.100000 0.400000 0.000000
1.200000 0.400000 0.000000
1.300000 0.400000 0.000000
1.400000 0.400000 0.000000
0.000000 0.500000 0.000000
0.100000 0.500000 0.000000
0.200000 0.500000 0.000000
0.300000 0.500000 0.000000
0.400000 0.500000 0.000000
0.500000 0.500000 0.000000
0.600000 0.500000 0.000000
0.700000 0.500000 0.000000
0.800000 0.500000 0.000000
0.900000 0.500000 0.000000
1.000000 0.500000 0.000000
1.100000 0.500000 0.000000
1.200000 0.500000 0.000000
1.300000 0.500000 0.000000
1.400000 0.500000 0.000000
0.000000 0.600000 0.000000
0.100000 0.600000 0.000000
0.200000 0.600000 0.000000
0.300000 0.600000 0.000000
0.400000 0.600000 0.000000
0.500000 0.600000 0.000000
0.600000 0.600000 0.000000
0.700000 0.600000 0.000000
0.800000 0.600000 0.000000
0.900000 0.600000 0.000000
1.000000 0.600000 0.000000
1.100000 0.600000 0.000000
1.200000 0.600000 0.000000
1.300000 0.600000 0.000000
1.400000 0.600000 0.000000
0.000000 0.700000 0.000000
0.100000 0.700000 0.000000
0.200000 0.700000 0.000000
0.300000 0.700000 0.000000
0.400000 0.700000 0.000000
0.500000 0.700000 0.000000
0.600000 0.700000 0.000000
0.700000 0.700000 0.000000
0.800000 0.700000 0.000000
0.900000 0.700000 0.000000
1.000000 0.700000 0.000000
1.100000 0.700000 0.000000
1.200000 0.700000 0.000000
1.300000 0.700000 0.000000
1.400000 0.700000 0.000000
0.000000 0.800000 0.000000
0.100000 0.800000 0.000000
0.200000 0.800000 0.000000
0.300000 0.800000 0.000000
0.400000 0.800000 0.000000
0.500000 0.800000 0.000000
0.600000 0.800000 0.000000
0.700000 0.800000 0.000000
0.800000 0.800000 0.000000
0.900000 0.800000 0.000000
1.000000 0.800000 0.000000
1.100000 0.800000 0.000000
1.200000 0.800000 0.000000
1.300000 0.800000 0.000000
1.400000 0.800000 0.000000
0.000000 0.900000 0.000000
0.100000 0.900000 0.000000
0.200000 0.900000 0.000000
0.300000 0.900000 0.000000
0.400000 0.900000 0.000000
0.500000 0.900000 0.000000
0.600000 0.900000 0.000000
0.700000 0.900000 0.000000
0.800000 0.900000 0.000000
0.900000 0.900000 0.000000
1.000000 0.900000 0.000000
1.100000 0.900000 0.000000
1.200000 0.900000 0.000000
1.300000 0.900000 0.000000
1.400000 0.900000 0.000000
0.000000 1.000000 0.000000
0.100000 1.000000 0.000000
0.200000 1.000000 0.000000
0.300000 1.000000 0.000000
0.400000 1.000000 0.000000
0.500000 1.000000 0.000000
0.600000 1.000000 0.000000
0.700000 1.000000 0.000000
0.800000 1.000000 0.000000
0.900000 1.000000 0.000000
1.000000 1.000000 0.000000
1.100000 1.000000 0.000000
1.200000 1.000000 0.000000
1.300000 1.000000 0.000000
1.400000 1.000000 0.000000
0.000000 0.000000 0.100000
0.100000 0.000000 0.100000
0.200000 0.000000 0.100000
0.300000 0.000000 0.100000
0.400000 0.000000 0.100000
0.500000 0.000000 0.100000
0.600000 0.000000 0.100000
0.700000 0.000000 0.100000
0.800000 0.000000 0.100000
0.900000 0.000000 0.100000
1.000000 0.000000 0.100000
1.100000 0.000000 0.100000
1.200000 0.000000 0.100000
1.300000 0.000000 0.100000
1.400000 0.000000 0.100000
0.000000 0.100000 0.100000
0.100000 0.100000 0.100000
0.200000 0.100000 0.100000
0.300000 0.100000 0.100000
0.400000 0.100000 0.100000
0.500000 0.100000 0.100000
0.600000 0.100000 0.100000
0.700000 0.100000 0.100000
0.800000 0.100000 0.100000
0.900000 0.100000 0.100000
1.000000 0.100000 0.100000
1.100000 0.100000 0.100000
1.200000 0.100000 0.100000
1.300000 0.100000 0.100000
1.400000 0.100000 0.100000
0.000000 0.200000 0.100000
0.100000 0.200000 0.100000
0.200000 0.200000 0.100000
0.300000 0.200000 0.100000
0.400000 0.200000 0.100000
0.500000 0.200000 0.100000
0.600000 0.200000 0.100000
0.700000 0.200000 0.100000
0.800000 0.200000 0.100000
0.900000 0.200000 0.100000
1.000000 0.200000 0.100000
1.100000 0.200000 0.100000
1.200000 0.200000 0.100000
1.300000 0.200000 0.100000
1.400000 0.200000 0.100000
0.000000 0.300000 0.100000
0.100000 0.300000 0.100000
0.200000 0.300000 0.100000
0.300000 0.300000 0.100000
0.400000 0.300000 0.100000
0.500000 0.300000 0.100000
0.600000 0.300000 0.100000
0.700000 0.300000 0.100000
0.800000 0.300000 0.100000
0.900000 0.300000 0.100000
1.000000 0.300000 0.100000
1.100000 0.300000 0.100000
1.200000 0.300000 0.100000
1.300000 0.300000 0.100000
1.400000 0.300000 0.100000
0.000000 0.400000 0.100000
0.100000 0.400000 0.100000
0.200000 0.400000 0.100000
0.300000 0.400000 0.100000
0.400000 0.400000 0.100000
0.500000 0.400000 0.100000
0.600000 0.400000 0.100000
0.700000 0.400000 0.100000
0.800000 0.400000 0.100000
0.900000 0.400000 0.100000
1.000000 0.400000 0.100000
1.100000 0.400000 0.100000
1.200000 0.400000 0.100000
1.300000 0.400000 0.100000
1.400000 0.400000 0.100000
0.000000 0.500000 0.100000
0.100000 0.500000 0.100000
0.200000 0.500000 0.100000
0.300000 0.500000 0.100000
0.400000 0.500000 0.100000
0.500000 0.500000 0.100000
0.600000 0.500000 0.100000
0.700000 0.500000 0.100000
0.800000 0.500000 0.100000
0.900000 0.500000 0.100000
1.000000 0.500000 0.100000
1.100000 0.500000 0.100000
1.200000 0.500000 0.100000
1.300000 0.500000 0.100000
1.400000 0.500000 0.100000
0.000000 0.600000 0.100000
0.100000 0.600000 0.100000
0.200000 0.600000 0.100000
0.300000 0.600000 0.100000
0.400000 0.600000 0.100000
0.500000 0.600000 0.100000
0.600000 0.600000 0.100000
0.700000 0.600000 0.100000
0.800000 0.600000 0.100000
0.900000 0.600000 0.100000
1.000000 0.600000 0.100000
1.100000 0.600000 0.100000
1.200000 0.600000 0.100000
1.300000 0.600000 0.100000
1.400000 0.600000 0.100000
0.000000 0.700000 0.100000
0.100000 0.700000 0.100000
0.200000 0.700000 0.100000
0.300000 0.700000 0.100000
0.400000 0.700000 0.100000
0.500000 0.700000 0.100000
0.600000 0.700000 0.100000
0.700000 0.700000 0.100000
0.800000 0.700000 0.100000
0.900000 0.700000 0.100000
1.000000 0.700000 0.100000
1.100000 0.700000 0.100000
1.200000 0.700000 0.100000
1.300000 0.700000 0.100000
1.400000 0.700000 0.100000
0.000000 0.800000 0.100000
0.100000 0.800000 0.100000
0.200000 0.800000 0.100000
0.300000 0.800000 0.100000
0.400000 0.800000 0.100000
0.500000 0.800000 0.100000
0.600000 0.800000 0.100000
0.700000 0.800000 0.100000
0.800000 0.800000 0.100000
0.900000 0.800000 0.100000
1.000000 0.800000 0.100000
1.100000 0.800000 0.100000
1.200000 0.800000 0.100000
1.300000 0.800000 0.100000
1.400000 0.800000 0.100000
0.000000 0.900000 0.100000
0.100000 0.900000 0.100000
0.200000 0.900000 0.100000
0.300000 0.900000 0.100000
0.400000 0.900000 0.100000
0.500000 0.900000 0.100000
0.600000 0.900000 0.100000
0.700000 0.900000 0.100000
0.800000 0.900000 0.100000
0.900000 0.900000 0.100000
1.000000 0.900000 0.100000
1.100000 0.900000 0.100000
1.200000 0.900000 0.100000
1.300000 0.900000 0.100000
1.400000 0.900000 0.100000
0.000000 1.000000 0.100000
0.100000 1.000000 0.100000
0.200000 1.000000 0.100000
0.300000 1.000000 0.100000
0.400000 1.000000 0.100000
0.500000 1.000000 0.100000
0.600000 1.000000 0.100000
0.700000 1.000000 0.100000
0.800000 1.000000 0.100000
0.900000 1.000000 0.100000
1.000000 1.000000 0.100000
1.100000 1.000000 0.100000
1.200000 1.000000 0.100000
1.300000 1.000000 0.100000
1.400000 1.000000 0.100000
0.000000 0.000000 0.200000
0.100000 0.000000 0.200000
0.200000 0.000000 0.200000
0.300000 0.000000 0.200000
0.400000 0.000000 0.200000
0.500000 0.000000 0.200000
0.600000 0.000000 0.200000
0.700000 0.000000 0.200000
0.800000 0.000000 0.200000
0.900000 0.000000 0.200000
1.000000 0.000000 0.200000
1.100000 0.000000 0.200000
1.200000 0.000000 0.200000
1.300000 0.000000 0.200000
1.400000 0.000000 0.200000
0.000000 0.100000 0.200000
0.100000 0.100000 0.200000
0.200000 0.100000 0.200000
0.300000 0.100000 0.200000
0.400000 0.100000 0.200000
0.500000 0.100000 0.200000
0.600000 0.100000 0.200000
0.700000 0.100000 0.200000
0.800000 0.100000 0.200000
0.900000 0.100000 0.200000
1.000000 0.100000 0.200000
1.100000 0.100000 0.200000
1.200000 0.100000 0.200000
1.300000 0.100000 0.200000
1.400000 0.100000 0.200000
0.000000 0.200000 0.200000
0.100000 0.200000 0.200000
0.200000 0.200000 0.200000
0.300000 0.200000 0.200000
0.400000 0.200000 0.200000
[...]
CELL_DATA 2800
SCALARS pressure float 1
LOOKUP_TABLE default
38.087
34.9664
32.628
30.8754
29.4906
28.327
27.2936
26.3323
25.4049
24.4848
23.5543
22.6031
21.6273
20.63
40.4366
35.3257
32.511
30.6939
29.3406
28.2198
27.2212
26.2852
25.3751
24.4669
23.5442
22.598
21.6251
20.6291
43.7955
36.305
32.6722
30.6083
29.2051
28.0966
27.126
26.2182
25.3321
24.4424
23.5329
22.5947
21.6251
20.6284
47.3004
37.5552
33.0383
30.6472
29.1376
28.0082
27.0483
26.161
25.2963
24.4251
23.5293
22.5987
21.6304
20.6292
50.5804
38.8478
33.5016
30.7728
29.1336
27.9634
27.0002
26.1251
25.2773
24.4221
23.5381
22.613
21.6429
20.6326
53.4571
40.0481
33.9791
30.9403
29.1721
27.9539
26.9801
26.1111
25.2761
24.4341
23.5595
22.6373
21.662
20.6385
55.8342
41.0757
34.414
31.1133
29.2309
27.9669
26.9801
26.1141
25.2886
24.4569
23.5894
22.6679
21.6849
20.6457
57.6551
41.881
34.7681
31.2646
29.2914
27.9895
26.991
26.1262
25.3077
24.4839
23.6214
22.699
21.7075
20.6522
58.8856
42.433
35.0168
31.3754
29.3397
28.0112
27.004
26.1397
25.326
24.5075
23.6481
22.7241
21.7253
20.657
59.5056
42.7134
35.1449
31.4339
29.3664
28.0241
27.0124
26.1485
25.3371
24.5213
23.6634
22.7384
21.7353
20.6595
35.7183
34.2871
32.5465
30.96
29.5973
28.4164
27.3601
26.3796
25.4377
24.5076
23.5702
22.6141
21.6348
20.6347
36.4159
34.4772
32.5185
30.8797
29.522
28.3585
27.3178
26.3484
25.4138
24.4883
23.5545
22.6019
21.6265
20.6308
37.8141
35.1513
32.7502
30.9136
29.4844
28.3041
27.2675
26.3084
25.3849
24.4692
23.543
22.5957
21.6235
20.6291
39.467
36.0636
33.1517
31.0505
29.503
28.2784
27.2316
26.2772
25.3635
24.458
23.5402
22.5979
21.6269
20.6297
41.1163
37.0401
33.6321
31.2539
29.5697
28.2853
27.2182
26.2624
25.3555
24.459
23.5484
22.6096
21.637
20.6332
42.6175
37.9676
34.1193
31.4838
29.6653
28.3174
27.2252
26.2643
25.3616
24.4721
23.5671
22.6299
21.6532
20.6392
43.887
38.7735
34.5607
31.7061
29.7693
28.3628
27.2458
26.2784
25.378
24.4937
23.5928
22.6556
21.6728
20.6467
44.8739
39.4112
34.9195
31.8946
29.8637
28.4095
27.2714
26.2978
25.3987
24.5183
23.6201
22.6817
21.6922
20.6538
45.547
39.8511
35.1714
32.0305
29.9347
28.447
27.2939
26.3156
25.4172
24.5393
23.6427
22.7028
21.7076
20.6591
45.888
40.0753
35.3011
32.1015
29.9727
28.4678
27.3069
26.3262
25.4283
24.5515
23.6557
22.7148
21.7162
20.6619
33.7961
33.1378
31.9969
30.7426
29.5382
28.4252
27.3944
26.4211
25.4792
24.5462
23.6046
22.6432
21.6572
20.6491
33.9223
33.1616
31.9452
30.6707
29.4727
28.3725
27.3527
26.3867
25.4491
24.5188
23.5799
22.6225
21.6424
20.6421
34.4363
33.498
32.0983
30.7131
29.4628
28.3433
27.32
26.357
25.4247
24.5
23.5664
22.6136
21.6375
20.6402
35.1704
34.0199
32.3877
30.8442
29.5059
28.3446
27.3056
26.3404
25.412
24.4935
23.5657
22.6169
21.6421
20.6429
35.9762
34.6182
32.7473
31.0309
29.5894
28.3743
27.3118
26.3401
25.4139
24.5008
23.5783
22.6321
21.6557
20.6502
36.7521
35.2113
33.1212
31.24
29.6956
28.4241
27.335
26.3546
25.4292
24.5208
23.6026
22.6575
21.6769
20.6615
37.4322
35.7414
33.4663
31.4423
29.8062
28.4827
27.3683
26.379
25.4537
24.5491
23.6345
22.6892
21.7027
20.6753
37.9733
36.169
33.7506
31.6143
29.9048
28.5388
27.4033
26.4062
25.4809
24.5795
23.6675
22.7211
21.728
20.6884
38.3479
36.4674
33.9519
31.7385
29.9781
28.5825
27.432
26.4294
25.504
24.6048
23.6945
22.7467
21.7475
20.6975
38.5391
36.6206
34.0561
31.8036
30.0173
28.6064
27.4481
26.4427
25.5173
24.6192
23.7097
22.7609
21.7582
20.7021
32.3784
32.0304
31.2864
30.3412
29.3362
28.3402
27.3747
26.4366
25.5132
24.5886
23.649
22.6841
21.69
20.6698
32.3332
31.9881
31.2209
30.2694
29.2704
28.284
27.3264
26.3935
25.4727
24.5502
23.6133
22.6537
21.6681
20.6593
32.4752
32.1217
31.2937
30.2904
29.261
28.2605
27.2985
26.3661
25.4482
24.5296
23.5975
22.6429
21.6623
20.6581
32.7745
32.3843
31.4668
30.383
29.2994
28.2686
27.2931
26.3573
25.4417
24.528
23.6011
22.6505
21.6713
20.6651
33.158
32.7179
31.6991
30.5223
29.3731
28.3034
27.3089
26.3671
25.4533
24.5449
23.6234
22.6754
21.6941
20.6803
33.5603
33.0696
31.9522
30.6831
29.4669
28.3563
27.341
26.3925
25.4805
24.5778
23.6618
22.7152
21.729
20.7036
33.932
33.3969
32.1931
30.8418
29.5651
28.4166
27.382
26.4274
25.5176
24.6212
23.7109
22.7649
21.7714
20.7324
34.2381
33.6682
32.3959
30.9789
29.6531
28.4737
27.4232
26.4639
25.5567
24.6663
23.7614
22.815
21.8125
20.7598
34.4547
33.861
32.5416
31.0791
29.7189
28.5178
27.4564
26.494
25.589
24.7032
23.8019
22.8542
21.8432
20.777
34.5666
33.9609
32.6177
31.1319
29.7542
28.542
27.4749
26.511
25.6073
24.7239
23.8244
22.8756
21.8592
20.7846
31.351
31.1172
30.602
29.886
29.0619
28.1928
27.3108
26.4259
25.5351
24.6293
23.6977
22.732
21.7292
20.6937
31.2694
31.0618
30.5398
29.8202
28.9987
28.1345
27.2566
26.3739
25.4838
24.5789
23.6502
22.6911
21.6996
20.6796
31.2621
31.0939
30.5612
29.821
28.9836
28.1104
27.2289
26.3459
25.4579
24.5566
23.6328
22.6796
21.6944
20.6802
31.3582
31.209
30.6513
29.8758
29.0092
28.1175
27.227
26.3423
25.4573
24.5616
23.6439
22.6953
21.7114
20.6944
31.5294
31.3821
30.7886
29.9689
29.0657
28.1501
27.2479
26.361
25.4804
24.5925
23.6824
22.7372
21.7503
20.7236
31.7361
31.582
30.9486
30.0823
29.1408
28.2002
27.2859
26.3977
25.5235
24.6461
23.7458
22.8036
21.8098
20.7699
31.9428
31.7788
31.1077
30.1984
29.2215
28.2579
27.3331
26.4453
25.5796
24.7155
23.8275
22.8884
21.8828
20.8306
32.1217
31.9481
31.2457
30.301
29.2952
28.3129
27.3803
26.4941
25.6378
24.7878
23.9132
22.9768
21.9532
20.8898
32.252
32.0713
31.3468
30.3772
29.3511
28.3559
27.4181
26.5338
25.6852
24.8461
23.9809
23.0439
22.0033
20.9218
32.3207
32.1361
31.4002
30.4179
29.3812
28.3795
27.4393
26.5562
25.7118
24.8785
24.0177
23.0792
22.0281
20.9336
30.6096
30.4135
30.023
29.4607
28.7783
28.0226
27.2244
26.3984
25.5474
24.6664
23.7471
22.7826
21.7707
20.7176
30.5319
30.3636
29.9712
29.4044
28.7203
27.9645
27.166
26.3387
25.4859
24.6041
23.6875
22.7309
21.7334
20.7004
30.4688
30.3498
29.9654
29.3925
28.7005
27.9391
27.1377
26.3099
25.4589
24.581
23.67
22.7204
21.7304
20.7043
30.4708
30.3866
30.0046
29.42
28.7146
27.9434
27.1377
26.311
25.4651
24.5951
23.6923
22.7483
21.7593
20.7291
30.534
30.4682
30.0799
29.4781
28.7554
27.9726
27.1626
26.3391
25.5025
24.6453
23.7545
22.8157
21.822
20.7806
30.6363
30.5776
30.1769
29.5551
28.8138
28.0192
27.2065
26.3891
25.5669
24.7293
23.8571
22.925
21.9189
20.8683
30.7525
30.6946
30.2795
29.6378
28.8791
28.0743
27.2608
26.4529
25.65
24.8398
23.9959
23.0748
22.0391
20.9937
30.8603
30.8004
30.3721
29.7133
28.9403
28.1278
27.3153
26.5182
25.7367
24.9579
24.1501
23.2469
22.1489
21.1216
30.9422
30.88
30.4416
29.7706
28.9875
28.1701
27.3592
26.5713
25.8069
25.0521
24.268
23.3683
22.2246
21.1734
30.9864
30.9226
30.4789
29.8015
29.0133
28.1934
27.3837
26.6009
25.8459
25.1035
24.3304
23.4297
22.2596
21.1875
30.0815
29.8949
29.5713
29.1068
28.5264
27.8612
27.1359
26.3654
25.5541
24.6993
23.7939
22.8314
21.8105
20.7389
30.0166
29.8545
29.5301
29.0597
28.474
27.8044
27.0747
26.2991
25.4833
24.626
23.7228
22.7695
21.7661
20.7195
29.9356
29.8219
29.5118
29.0415
28.4518
27.7782
27.0459
26.2699
25.456
24.6031
23.7066
22.7614
21.7665
20.7278
29.8948
29.819
29.5221
29.0519
28.4578
27.7805
27.048
26.2759
25.4701
24.6283
23.7429
22.8047
21.8101
20.766
29.9031
29.8501
29.5599
29.0868
28.4874
27.8073
27.0772
26.3142
25.5241
24.7024
23.8358
22.9056
21.9018
20.848
29.9491
29.9071
29.6175
29.139
28.5338
27.8521
27.1276
26.3796
25.6145
24.8265
23.9945
23.0787
22.0443
20.999
30.0149
29.9766
29.6837
29.1986
28.5881
27.9063
27.1905
26.4628
25.7326
24.9965
24.2286
23.3519
22.211
21.235
30.0824
30.0441
29.7466
29.2552
28.6404
27.9599
27.2541
26.5486
25.8582
25.1877
24.5215
23.7612
22.377
21.4732
30.1366
30.097
29.7954
29.2992
28.6815
28.0027
27.3055
26.6183
25.9592
25.3363
24.7288
23.9957
22.5154
21.5239
30.1666
30.126
29.8221
29.3233
28.7042
28.0265
27.3342
26.6571
26.0149
25.4159
24.8348
24.1096
22.558
21.5293
29.7192
29.5331
29.2448
28.84
28.3283
27.7289
27.0603
26.3352
25.5582
24.7268
23.8341
22.8735
21.8442
20.7555
29.6663
29.5007
29.2119
28.8001
28.2805
27.6733
26.9969
26.2637
25.4796
24.644
23.7531
22.803
21.7941
20.7348
29.5818
29.4613
29.1884
28.7793
28.2574
27.647
26.9681
26.2345
25.4525
24.6221
23.7389
22.7978
21.7982
20.7474
29.5223
29.4391
29.1834
28.7799
28.2586
27.6484
26.9723
26.2454
25.4746
24.6588
23.79
22.8571
21.8556
20.7983
29.5031
29.4432
29.1998
28.8009
28.2814
27.6743
27.0059
26.2937
25.5452
24.7576
23.9159
22.994
21.9741
20.91
29.519
29.4711
29.2341
28.8377
28.3203
27.7188
27.0633
26.3744
25.6626
24.9259
24.141
23.2481
22.1517
21.1254
29.557
29.5132
29.2783
28.8827
28.3677
27.7738
27.1351
26.4775
25.8189
25.1679
24.5123
23.7551
22.3624
21.4617
29.6019
29.5583
29.323
28.9273
28.4147
27.8289
27.2083
26.585
25.9891
25.4579
25.072
24.9905
0.0
0.0
29.6403
29.5953
29.3589
28.9628
28.4522
27.8732
27.2675
26.6721
26.1248
25.6751
25.415
25.4754
0.0
0.0
29.6623
29.6162
29.379
28.9826
28.473
27.898
27.3006
26.7206
26.1989
25.7893
25.5862
25.7133
0.0
0.0
29.4926
29.3047
29.0344
28.6637
28.1938
27.6367
27.0065
26.3133
25.5611
24.747
23.8638
22.9046
21.8686
20.7664
29.4479
29.2778
29.0069
28.6284
28.149
27.582
26.9414
26.2379
25.4767
24.6572
23.7755
22.8276
21.8143
20.7451
29.3645
29.2365
28.9817
28.6068
28.1258
27.5558
26.9128
26.2088
25.4499
24.6362
23.763
22.8248
21.8211
20.7604
29.2975
29.2055
28.9692
28.6024
28.1246
27.5571
26.9188
26.2236
25.4784
24.6821
23.8256
22.8961
21.8882
20.8182
29.2651
29.1961
28.9743
28.6158
28.1437
27.583
26.9562
26.2798
25.5622
24.8004
23.9768
23.059
22.0245
20.943
29.2658
29.2086
28.9959
28.644
28.1785
27.6282
27.0193
26.3727
25.701
25.0027
24.2503
23.3653
22.2254
21.1762
29.2893
29.236
29.0279
28.6808
28.2224
27.6845
27.0984
26.4918
25.887
25.2978
24.7091
23.9827
22.4961
21.5088
29.3221
29.2688
29.0624
28.7186
28.2665
27.7414
27.1794
26.6165
26.0914
25.6556
25.4029
25.4635
0.0
0.0
29.3521
29.2971
29.091
28.7492
28.3021
27.7874
27.2451
26.7176
26.2544
25.9243
25.8376
26.1757
0.0
0.0
29.3697
29.3135
29.1073
28.7665
28.3221
27.8132
27.2818
26.7738
26.3433
26.0653
26.0541
26.4847
0.0
0.0
29.3836
29.1944
28.9317
28.5764
28.1263
27.5899
26.9788
26.302
25.5627
24.7578
23.8797
22.9212
21.8815
20.7718
29.343
29.1701
28.9068
28.5434
28.083
27.5355
26.9129
26.2246
25.4753
24.6643
23.7875
22.8407
21.825
20.7502
29.261
29.1287
28.8812
28.5218
28.0599
27.5095
26.8844
26.1956
25.4488
24.6439
23.776
22.8392
21.8331
20.7666
29.1914
29.0943
28.8657
28.5154
28.0578
27.5109
26.8915
26.2126
25.4808
24.6948
23.8448
22.9167
21.9048
20.8269
29.1539
29.0794
28.8662
28.5255
28.0754
27.5371
26.931
26.2732
25.5718
24.8235
24.0091
23.0926
22.0491
20.9551
29.1483
29.0853
28.8823
28.55
28.1086
27.5829
26.9973
26.3727
25.722
25.0438
24.3071
23.4239
22.2592
21.1898
29.1655
29.1065
28.909
28.5832
28.151
27.6402
27.0806
26.5004
25.9239
25.3661
24.8083
24.0923
22.5367
21.5127
29.1932
29.1338
28.9389
28.6179
28.194
27.6983
27.1659
26.6344
26.1463
25.7578
25.5662
25.695
0.0
0.0
29.2195
29.1583
28.9643
28.6465
28.2289
27.7454
27.2352
26.7432
26.3239
26.0529
26.0453
26.4765
0.0
0.0
29.2353
29.1727
28.9789
28.6626
28.2486
27.7718
27.274
26.8036
26.4208
26.2081
26.2848
26.8196
0.0
0.0
29.3837
29.1945
28.9319
28.5766
28.1265
27.5901
26.979
26.3022
25.563
24.7581
23.8801
22.9215
21.8819
20.7722
29.3432
29.1703
28.9069
28.5436
28.0831
27.5357
26.9131
26.2248
25.4755
24.6646
23.7878
22.8411
21.8254
20.7506
29.2611
29.1288
28.8814
28.5219
28.0601
27.5096
26.8846
26.1958
25.4491
24.6442
23.7763
22.8396
21.8334
20.767
29.1916
29.0944
28.8659
28.5155
28.058
27.511
26.8917
26.2128
25.4811
24.695
23.8451
22.917
21.9052
20.8272
29.154
29.0795
28.8663
28.5257
28.0755
27.5372
26.9312
26.2734
25.572
24.8238
24.0095
23.093
22.0494
20.9554
29.1485
29.0855
28.8824
28.5501
28.1088
27.583
26.9975
26.3729
25.7223
25.0441
24.3074
23.4243
22.2596
21.19
29.1657
29.1066
28.9091
28.5834
28.1511
27.6404
27.0808
26.5006
25.9242
25.3664
24.8087
24.0929
22.5373
21.5122
29.1934
29.134
28.9391
28.6181
28.1942
27.6985
27.1661
26.6346
26.1465
25.7581
25.5665
25.6958
0.0
0.0
29.2197
29.1585
28.9645
28.6466
28.2291
27.7456
27.2354
26.7434
26.3241
26.053
26.0449
26.4741
0.0
0.0
29.2355
29.1729
28.9791
28.6628
28.2487
27.772
27.2742
26.8038
26.4211
26.2082
26.2844
26.8172
0.0
0.0
29.493
29.3051
29.0348
28.6641
28.1943
27.6373
27.0071
26.314
25.5619
24.7479
23.8648
22.9057
21.8699
20.7676
29.4483
29.2782
29.0073
28.6289
28.1495
27.5825
26.942
26.2386
25.4774
24.6581
23.7764
22.8286
21.8155
20.7462
29.365
29.237
28.9821
28.6073
28.1263
27.5563
26.9133
26.2095
25.4507
24.637
23.764
22.8259
21.8222
20.7615
29.298
29.2059
28.9696
28.6029
28.1251
27.5576
26.9193
26.2243
25.4792
24.6829
23.8266
22.8971
21.8893
20.8193
29.2656
29.1966
28.9748
28.6163
28.1441
27.5835
26.9567
26.2805
25.563
24.8013
23.9778
23.0601
22.0256
20.944
29.2663
29.209
28.9963
28.6444
28.179
27.6287
27.0198
26.3734
25.7017
25.0036
24.2514
23.3666
22.2266
21.1769
29.2898
29.2365
29.0284
28.6813
28.2229
27.685
27.099
26.4924
25.8878
25.2987
24.7103
23.9844
22.4979
21.5082
29.3227
29.2693
29.0629
28.7191
28.267
27.7419
27.18
26.6171
26.0921
25.6564
25.404
25.4664
0.0
0.0
29.3526
29.2976
29.0915
28.7497
28.3027
27.788
27.2457
26.7183
26.2551
25.9247
25.837
26.1712
0.0
0.0
29.3703
29.314
29.1078
28.767
28.3227
27.8138
27.2825
26.7745
26.3441
26.0659
26.0534
26.4798
0.0
0.0
29.7199
29.5337
29.2455
28.8408
28.3291
27.7297
27.0613
26.3364
25.5595
24.7283
23.8358
22.8754
21.8462
20.7576
29.667
29.5014
29.2126
28.8008
28.2812
27.6741
26.9978
26.2648
25.4808
24.6454
23.7547
22.8047
21.7959
20.7367
29.5826
29.4621
29.1891
28.7801
28.2582
27.6478
26.969
26.2355
25.4537
24.6234
23.7404
22.7995
21.8
20.7493
29.5231
29.4398
29.1841
28.7806
28.2594
27.6492
26.9732
26.2464
25.4758
24.6602
23.7915
22.8588
21.8575
20.8002
29.5039
29.444
29.2006
28.8016
28.2821
27.6751
27.0069
26.2947
25.5464
24.7591
23.9175
22.9959
21.9762
20.912
29.5199
29.4718
29.2348
28.8384
28.3211
27.7197
27.0643
26.3755
25.6639
24.9274
24.1429
23.2503
22.154
21.1273
29.5579
29.514
29.2791
28.8835
28.3685
27.7747
27.1361
26.4786
25.8202
25.1694
24.5143
23.7579
22.3656
21.4628
29.6028
29.5591
29.3238
28.9281
28.4155
27.8298
27.2093
26.5862
25.9904
25.4594
25.0739
24.9946
0.0
0.0
29.6412
29.5961
29.3597
28.9636
28.453
27.8742
27.2686
26.6733
26.1261
25.6762
25.4152
25.4717
0.0
0.0
29.6632
29.617
29.3798
28.9834
28.4739
27.899
27.3017
26.7219
26.2004
25.7907
25.5864
25.7089
0.0
0.0
30.0824
29.8958
29.5722
29.1077
28.5274
27.8623
27.1373
26.3669
25.5559
24.7013
23.7961
22.8338
21.8131
20.7417
30.0176
29.8555
29.5311
29.0606
28.475
27.8055
27.076
26.3006
25.4849
24.6279
23.7249
22.7718
21.7686
20.7221
29.9366
29.8228
29.5127
29.0425
28.4529
27.7793
27.0472
26.2714
25.4576
24.6049
23.7086
22.7636
21.7689
20.7303
29.8959
29.82
29.5231
29.0528
28.4588
27.7817
27.0492
26.2774
25.4717
24.6302
23.745
22.8071
21.8126
20.7687
29.9042
29.8511
29.5609
29.0878
28.4885
27.8084
27.0785
26.3157
25.5257
24.7043
23.8381
22.9082
21.9046
20.8511
29.9502
29.9082
29.6185
29.14
28.5349
27.8532
27.129
26.3811
25.6162
24.8285
23.9969
23.0817
22.0479
21.0029
30.016
29.9777
29.6848
29.1996
28.5892
27.9075
27.1919
26.4643
25.7344
24.9987
24.2314
23.3557
22.2159
21.2406
30.0836
30.0452
29.7477
29.2563
28.6415
27.9612
27.2555
26.5502
25.86
25.1899
24.5244
23.7657
22.3852
21.4831
30.1378
30.0981
29.7965
29.3003
28.6827
28.004
27.3069
26.6199
25.9612
25.3385
24.7313
23.9988
22.5229
21.5336
30.1679
30.1271
29.8232
29.3244
28.7055
28.0278
27.3357
26.6589
26.017
25.4184
24.8375
24.1128
22.5652
21.5384
30.6107
30.4145
30.0241
29.4619
28.7795
28.024
27.226
26.4003
25.5495
24.6688
23.7498
22.7856
21.774
20.7211
30.5331
30.3647
29.9723
29.4055
28.7215
27.9659
27.1676
26.3405
25.4879
24.6064
23.6901
22.7337
21.7364
20.7036
30.47
30.3509
29.9666
29.3937
28.7018
27.9405
27.1392
26.3117
25.4608
24.5832
23.6725
22.7231
21.7333
20.7074
30.4721
30.3879
30.0058
29.4212
28.7158
27.9448
27.1393
26.3127
25.4671
24.5973
23.6948
22.7511
21.7625
20.7324
30.5353
30.4695
30.0811
29.4793
28.7567
27.974
27.1642
26.3408
25.5045
24.6476
23.7572
22.8188
21.8255
20.7844
30.6377
30.5789
30.1782
29.5564
28.8151
28.0206
27.2081
26.391
25.569
24.7318
23.8601
22.9286
21.9231
20.873
30.7539
30.6959
30.2808
29.6391
28.8804
28.0758
27.2625
26.4548
25.6522
24.8424
23.9992
23.0789
22.0443
21.0001
30.8617
30.8017
30.3734
29.7146
28.9417
28.1293
27.317
26.5202
25.739
24.9608
24.1537
23.2517
22.1557
21.1304
30.9437
30.8813
30.4429
29.7719
28.9889
28.1716
27.3609
26.5733
25.8093
25.0551
24.2717
23.3732
22.232
21.1833
30.9878
30.9239
30.4802
29.8029
29.0147
28.195
27.3855
26.6031
25.8485
25.1068
24.3344
23.435
22.2674
21.1979
31.3523
31.1184
30.6032
29.8873
29.0633
28.1944
27.3127
26.428
25.5375
24.632
23.7007
22.7354
21.7329
20.6976
31.2707
31.063
30.5411
29.8215
29.0001
28.1361
27.2584
26.3759
25.4861
24.5814
23.653
22.6943
21.703
20.6832
31.2635
31.0952
30.5625
29.8223
28.985
28.112
27.2307
26.3479
25.4602
24.5591
23.6356
22.6827
21.6977
20.6837
31.3597
31.2104
30.6527
29.8772
29.0107
28.1191
27.2288
26.3443
25.4595
24.5641
23.6468
22.6985
21.7149
20.6981
31.5309
31.3836
30.79
29.9703
29.0672
28.1517
27.2497
26.363
25.4827
24.5951
23.6854
22.7407
21.7542
20.7278
31.7376
31.5834
30.95
30.0837
29.1423
28.2018
27.2877
26.3998
25.5259
24.6489
23.7491
22.8075
21.8142
20.7748
31.9444
31.7803
31.1092
30.1998
29.223
28.2595
27.335
26.4474
25.5822
24.7185
23.8311
22.8928
21.8881
20.8367
32.1232
31.9496
31.2472
30.3025
29.2967
28.3147
27.3823
26.4963
25.6405
24.791
23.9172
22.9817
21.9594
20.8973
32.2536
32.0728
31.3483
30.3788
29.3527
28.3577
27.4202
26.5362
25.688
24.8496
23.9851
23.0492
22.0102
20.9303
32.3223
32.1376
31.4017
30.4194
29.3829
28.3813
27.4414
26.5587
25.7148
24.8822
24.0222
23.0849
22.0355
20.9427
32.3797
32.0317
31.2877
30.3426
29.3378
28.342
27.3767
26.4389
25.5157
24.5915
23.6522
22.6877
21.6939
20.6739
32.3347
31.9894
31.2223
30.2708
29.272
28.2857
27.3284
26.3956
25.4752
24.5529
23.6164
22.6571
21.6717
20.6631
32.4767
32.1232
31.2951
30.2919
29.2625
28.2622
27.3004
26.3682
25.4506
24.5323
23.6005
22.6462
21.6659
20.6619
32.7761
32.3858
31.4682
30.3845
29.301
28.2704
27.295
26.3594
25.4441
24.5307
23.6042
22.6539
21.675
20.6691
33.1597
32.7195
31.7006
30.5238
29.3747
28.3052
27.3108
26.3693
25.4558
24.5478
23.6266
22.679
21.6982
20.6848
33.5619
33.0711
31.9537
30.6846
29.4685
28.358
27.3429
26.3947
25.4831
24.5808
23.6653
22.7193
21.7336
20.7087
33.9336
33.3985
32.1946
30.8434
29.5667
28.4184
27.384
26.4297
25.5203
24.6244
23.7147
22.7694
21.7766
20.7383
34.2398
33.6698
32.3975
30.9805
29.6547
28.4755
27.4253
26.4663
25.5596
24.6698
23.7656
22.82
21.8184
20.7666
34.4563
33.8625
32.5432
31.0807
29.7206
28.5197
27.4585
26.4965
25.592
24.7069
23.8064
22.8597
21.8497
20.7846
34.5683
33.9625
32.6193
31.1335
29.756
28.544
27.4772
26.5137
25.6105
24.7279
23.8292
22.8814
21.8662
20.7927
33.7975
33.1392
31.9983
30.7441
29.5399
28.427
27.3965
26.4234
25.4818
24.5491
23.6079
22.6468
21.6611
20.6533
33.9238
33.163
31.9466
30.6723
29.4744
28.3743
27.3547
26.3889
25.4516
24.5216
23.5831
22.6259
21.6461
20.646
34.4379
33.4995
32.0999
30.7147
29.4644
28.3451
27.322
26.3592
25.4271
24.5028
23.5695
22.6171
21.6413
20.6441
35.172
34.0215
32.3893
30.8458
29.5075
28.3464
27.3076
26.3426
25.4145
24.4963
23.5689
22.6205
21.646
20.647
35.9778
34.6198
32.7488
31.0325
29.591
28.3761
27.3138
26.3423
25.4165
24.5038
23.5817
22.6359
21.6599
20.6547
36.7538
35.2129
33.1228
31.2416
29.6973
28.4259
27.337
26.3569
25.4319
24.5239
23.6062
22.6617
21.6817
20.6667
37.4338
35.743
33.4678
31.4439
29.8079
28.4845
27.3704
26.3814
25.4565
24.5525
23.6384
22.6938
21.708
20.6812
37.9749
36.1705
33.7522
31.6158
29.9064
28.5407
27.4054
26.4087
25.4839
24.5831
23.6718
22.7262
21.7339
20.695
38.3495
36.469
33.9535
31.7401
29.9798
28.5844
27.4342
26.432
25.5072
24.6086
23.6991
22.7522
21.754
20.7047
38.5408
36.6222
34.0577
31.8053
30.019
28.6083
27.4504
26.4455
25.5207
24.6233
23.7146
22.7667
21.765
20.7097
35.7197
34.2885
32.548
30.9616
29.599
28.4183
27.3621
26.3818
25.4403
24.5105
23.5734
22.6177
21.6387
20.6389
36.4175
34.4788
32.5201
30.8813
29.5237
28.3603
27.3198
26.3506
25.4163
24.4911
23.5577