# vtk DataFile Version 2.0
I need something to put here
ASCII

DATASET STRUCTURED_GRID
DIMENSIONS 41 11 21
POINTS 9471 float
0.000000 1.000000 0.000000
0.100000 1.000000 0.000000
0.200000 1.000000 0.000000
0.300000 1.000000 0.000000
0.400000 1.000000 0.000000
0.500000 1.000000 0.000000
0.600000 1.000000 0.000000
0.700000 1.000000 0.000000
0.800000 1.000000 0.000000
0.900000 1.000000 0.000000
1.000000 1.000000 0.000000
1.100000 1.000000 0.000000
1.200000 1.000000 0.000000
1.300000 1.000000 0.000000
1.400000 1.000000 0.000000
1.500000 1.000000 0.000000
1.600000 1.000000 0.000000
1.700000 1.000000 0.000000
1.800000 1.000000 0.000000
1.900000 1.000000 0.000000
2.000000 1.000000 0.000000
2.100000 1.000000 0.000000
2.200000 1.000000 0.000000
2.300000 1.000000 0.000000
2.400000 1.000000 0.000000
2.500000 1.000000 0.000000
2.600000 1.000000 0.000000
2.700000 1.000000 0.000000
2.800000 1.000000 0.000000
2.900000 1.000000 0.000000
3.000000 1.000000 0.000000
3.100000 1.000000 0.000000
3.200000 1.000000 0.000000
3.300000 1.000000 0.000000
3.400000 1.000000 0.000000
3.500000 1.000000 0.000000
3.600000 1.000000 0.000000
3.700000 1.000000 0.000000
3.800000 1.000000 0.000000
3.900000 1.000000 0.000000
4.000000 1.000000 0.000000
0.000000 1.100000 0.000000
0.100000 1.100000 0.000000
0.200000 1.100000 0.000000
0.300000 1.100000 0.000000
0.400000 1.100000 0.000000
0.500000 1.100000 0.000000
0.600000 1.100000 0.000000
0.700000 1.100000 0.000000
0.800000 1.100000 0.000000
0.900000 1.100000 0.000000
1.000000 1.100000 0.000000
1.100000 1.100000 0.000000
1.200000 1.100000 0.000000
1.300000 1.100000 0.000000
1.400000 1.100000 0.000000
1.500000 1.100000 0.000000
1.600000 1.100000 0.000000
1.700000 1.100000 0.000000
1.800000 1.100000 0.000000
1.900000 1.100000 0.000000
2.000000 1.100000 0.000000
2.100000 1.100000 0.000000
2.200000 1.100000 0.000000
2.300000 1.100000 0.000000
2.400000 1.100000 0.000000
2.500000 1.100000 0.000000
2.600000 1.100000 0.000000
2.700000 1.100000 0.000000
2.800000 1.100000 0.000000
2.900000 1.100000 0.000000
3.000000 1.100000 0.000000
3.100000 1.100000 0.000000
3.200000 1.100000 0.000000
3.300000 1.100000 0.000000
3.400000 1.100000 0.000000
3.500000 1.100000 0.000000
3.600000 1.100000 0.000000
3.700000 1.100000 0.000000
3.800000 1.100000 0.000000
3.900000 1.100000 0.000000
4.000000 1.100000 0.000000
0.000000 1.200000 0.000000
0.100000 1.200000 0.000000
0.200000 1.200000 0.000000
0.300000 1.200000 0.000000
0.400000 1.200000 0.000000
0.500000 1.200000 0.000000
0.600000 1.200000 0.000000
0.700000 1.200000 0.000000
0.800000 1.200000 0.000000
0.900000 1.200000 0.000000
1.000000 1.200000 0.000000
1.100000 1.200000 0.000000
1.200000 1.200000 0.000000
1.300000 1.200000 0.000000
1.400000 1.200000 0.000000
1.500000 1.200000 0.000000
1.600000 1.200000 0.000000
1.700000 1.200000 0.000000
1.800000 1.200000 0.000000
1.900000 1.200000 0.000000
2.000000 1.200000 0.000000
2.100000 1.200000 0.000000
2.200000 1.200000 0.000000
2.300000 1.200000 0.000000
2.400000 1.200000 0.000000
2.500000 1.200000 0.000000
2.600000 1.200000 0.000000
2.700000 1.200000 0.000000
2.800000 1.200000 0.000000
2.900000 1.200000 0.000000
3.000000 1.200000 0.000000
3.100000 1.200000 0.000000
3.200000 1.200000 0.000000
3.300000 1.200000 0.000000
3.400000 1.200000 0.000000
3.500000 1.200000 0.000000
3.600000 1.200000 0.000000
3.700000 1.200000 0.000000
3.800000 1.200000 0.000000
3.900000 1.200000 0.000000
4.000000 1.200000 0.000000
0.000000 1.300000 0.000000
0.100000 1.300000 0.000000
0.200000 1.300000 0.000000
0.300000 1.300000 0.000000
0.400000 1.300000 0.000000
0.500000 1.300000 0.000000
0.600000 1.300000 0.000000
0.700000 1.300000 0.000000
0.800000 1.300000 0.000000
0.900000 1.300000 0.000000
1.000000 1.300000 0.000000
1.100000 1.300000 0.000000
1.200000 1.300000 0.000000
1.300000 1.300000 0.000000
1.400000 1.300000 0.000000
1.500000 1.300000 0.000000
1.600000 1.300000 0.000000
1.700000 1.300000 0.000000
1.800000 1.300000 0.000000
1.900000 1.300000 0.000000
2.000000 1.300000 0.000000
2.100000 1.300000 0.000000
2.200000 1.300000 0.000000
2.300000 1.300000 0.000000
2.400000 1.300000 0.000000
2.500000 1.300000 0.000000
2.600000 1.300000 0.000000
2.700000 1.300000 0.000000
2.800000 1.300000 0.000000
2.900000 1.300000 0.000000
3.000000 1.300000 0.000000
3.100000 1.300000 0.000000
3.200000 1.300000 0.000000
3.300000 1.300000 0.000000
3.400000 1.300000 0.000000
3.500000 1.300000 0.000000
3.600000 1.300000 0.000000
3.700000 1.300000 0.000000
3.800000 1.300000 0.000000
3.900000 1.300000 0.000000
4.000000 1.300000 0.000000
0.000000 1.400000 0.000000
0.100000 1.400000 0.000000
0.200000 1.400000 0.000000
0.300000 1.400000 0.000000
0.400000 1.400000 0.000000
0.500000 1.400000 0.000000
0.600000 1.400000 0.000000
0.700000 1.400000 0.000000
0.800000 1.400000 0.000000
0.900000 1.400000 0.000000
1.000000 1.400000 0.000000
1.100000 1.400000 0.000000
1.200000 1.400000 0.000000
1.300000 1.400000 0.000000
1.400000 1.400000 0.000000
1.500000 1.400000 0.000000
1.600000 1.400000 0.000000
1.700000 1.400000 0.000000
1.800000 1.400000 0.000000
1.900000 1.400000 0.000000
2.000000 1.400000 0.000000
2.100000 1.400000 0.000000
2.200000 1.400000 0.000000
2.300000 1.400000 0.000000
2.400000 1.400000 0.000000
2.500000 1.400000 0.000000
2.600000 1.400000 0.000000
2.700000 1.400000 0.000000
2.800000 1.400000 0.000000
2.900000 1.400000 0.000000
3.000000 1.400000 0.000000
3.100000 1.400000 0.000000
3.200000 1.400000 0.000000
3.300000 1.400000 0.000000
3.400000 1.400000 0.000000
3.500000 1.400000 0.000000
3.600000 1.400000 0.000000
3.700000 1.400000 0.000000
3.800000 1.400000 0.000000
3.900000 1.400000 0.000000
4.000000 1.400000 0.000000
0.000000 1.500000 0.000000
0.100000 1.500000 0.000000
0.200000 1.500000 0.000000
0.300000 1.500000 0.000000
0.400000 1.500000 0.000000
0.500000 1.500000 0.000000
0.600000 1.500000 0.000000
0.700000 1.500000 0.000000
0.800000 1.500000 0.000000
0.900000 1.500000 0.000000
1.000000 1.500000 0.000000
1.100000 1.500000 0.000000
1.200000 1.500000 0.000000
1.300000 1.500000 0.000000
1.400000 1.500000 0.000000
1.500000 1.500000 0.000000
1.600000 1.500000 0.000000
1.700000 1.500000 0.000000
1.800000 1.500000 0.000000
1.900000 1.500000 0.000000
2.000000 1.500000 0.000000
2.100000 1.500000 0.000000
2.200000 1.500000 0.000000
2.300000 1.500000 0.000000
2.400000 1.500000 0.000000
2.500000 1.500000 0.000000
2.600000 1.500000 0.000000
2.700000 1.500000 0.000000
2.800000 1.500000 0.000000
2.900000 1.500000 0.000000
3.000000 1.500000 0.000000
3.100000 1.500000 0.000000
3.200000 1.500000 0.000000
3.300000 1.500000 0.000000
3.400000 1.500000 0.000000
3.500000 1.500000 0.000000
3.600000 1.500000 0.000000
3.700000 1.500000 0.000000
3.800000 1.500000 0.000000
3.900000 1.500000 0.000000
4.000000 1.500000 0.000000
0.000000 1.600000 0.000000
0.100000 1.600000 0.000000
0.200000 1.600000 0.000000
0.300000 1.600000 0.000000
0.400000 1.600000 0.000000
0.500000 1.600000 0.000000
0.600000 1.600000 0.000000
0.700000 1.600000 0.000000
0.800000 1.600000 0.000000
0.900000 1.600000 0.000000
1.000000 1.600000 0.000000
1.100000 1.600000 0.000000
1.200000 1.600000 0.000000
1.300000 1.600000 0.000000
1.400000 1.600000 0.000000
1.500000 1.600000 0.000000
1.600000 1.600000 0.000000
1.700000 1.600000 0.000000
1.800000 1.600000 0.000000
1.900000 1.600000 0.000000
2.000000 1.600000 0.000000
2.100000 1.600000 0.000000
2.200000 1.600000 0.000000
2.300000 1.600000 0.000000
2.400000 1.600000 0.000000
2.500000 1.600000 0.000000
2.600000 1.600000 0.000000
2.700000 1.600000 0.000000
2.800000 1.600000 0.000000
2.900000 1.600000 0.000000
3.000000 1.600000 0.000000
3.100000 1.600000 0.000000
3.200000 1.600000 0.000000
3.300000 1.600000 0.000000
3.400000 1.600000 0.000000
3.500000 1.600000 0.000000
3.600000 1.600000 0.000000
3.700000 1.600000 0.000000
3.800000 1.600000 0.000000
3.900000 1.600000 0.000000
4.000000 1.600000 0.000000
0.000000 1.700000 0.000000
0.100000 1.700000 0.000000
0.200000 1.700000 0.000000
0.300000 1.700000 0.000000
0.400000 1.700000 0.000000
0.500000 1.700000 0.000000
0.600000 1.700000 0.000000
0.700000 1.700000 0.000000
0.800000 1.700000 0.000000
0.900000 1.700000 0.000000
1.000000 1.700000 0.000000
1.100000 1.700000 0.000000
1.200000 1.700000 0.000000
1.300000 1.700000 0.000000
1.400000 1.700000 0.000000
1.500000 1.700000 0.000000
1.600000 1.700000 0.000000
1.700000 1.700000 0.000000
1.800000 1.700000 0.000000
1.900000 1.700000 0.000000
2.000000 1.700000 0.000000
2.100000 1.700000 0.000000
2.200000 1.700000 0.000000
2.300000 1.700000 0.000000
2.400000 1.700000 0.000000
2.500000 1.700000 0.000000
2.600000 1.700000 0.000000
2.700000 1.700000 0.000000
2.800000 1.700000 0.000000
2.900000 1.700000 0.000000
3.000000 1.700000 0.000000
3.100000 1.700000 0.000000
3.200000 1.700000 0.000000
3.300000 1.700000 0.000000
3.400000 1.700000 0.000000
3.500000 1.700000 0.000000
3.600000 1.700000 0.000000
3.700000 1.700000 0.000000
3.800000 1.700000 0.000000
3.900000 1.700000 0.000000
4.000000 1.700000 0.000000
0.000000 1.800000 0.000000
0.100000 1.800000 0.000000
0.200000 1.800000 0.000000
0.300000 1.800000 0.000000
0.400000 1.800000 0.000000
0.500000 1.800000 0.000000
0.600000 1.800000 0.000000
0.700000 1.800000 0.000000
0.800000 1.800000 0.000000
0.900000 1.800000 0.000000
1.000000 1.800000 0.000000
1.100000 1.800000 0.000000
1.200000 1.800000 0.000000
1.300000 1.800000 0.000000
1.400000 1.800000 0.000000
1.500000 1.800000 0.000000
1.600000 1.800000 0.000000
1.700000 1.800000 0.000000
1.800000 1.800000 0.000000
1.900000 1.800000 0.000000
2.000000 1.800000 0.000000
2.100000 1.800000 0.000000
2.200000 1.800000 0.000000
2.300000 1.800000 0.000000
2.400000 1.800000 0.000000
2.500000 1.800000 0.000000
2.600000 1.800000 0.000000
2.700000 1.800000 0.000000
2.800000 1.800000 0.000000
2.900000 1.800000 0.000000
3.000000 1.800000 0.000000
3.100000 1.800000 0.000000
3.200000 1.800000 0.000000
3.300000 1.800000 0.000000
3.400000 1.800000 0.000000
3.500000 1.800000 0.000000
3.600000 1.800000 0.000000
[...]
CELL_DATA 8000
SCALARS pressure float 1
LOOKUP_TABLE default
-34.0252
-25.5736
-21.8628
-20.0647
-19.0496
-18.3621
-17.8081
-17.2952
-16.7733
-16.2095
-15.5826
-14.883
-14.1152
-13.2955
-12.445
-11.5846
-10.7353
-9.91936
-9.15935
-8.47304
-7.86569
-7.32993
-6.851
-6.41258
-6.00042
-5.60377
-5.21533
-4.83057
-4.44694
-4.06315
-3.67866
-3.29336
-2.90729
-2.52058
-2.13339
-1.74584
-1.35802
-0.970034
-0.581959
-0.193898
-33.7143
-25.4322
-21.7938
-20.0278
-19.0269
-18.3452
-17.7926
-17.2791
-16.7557
-16.1909
-15.5642
-14.8668
-14.103
-13.2887
-12.4443
-11.5902
-10.7471
-9.93646
-9.18033
-8.49578
-7.88801
-7.3501
-6.86804
-6.42619
-6.01079
-5.61136
-5.22068
-4.83421
-4.44932
-4.06465
-3.67956
-3.29386
-2.90753
-2.52068
-2.1334
-1.7458
-1.35797
-0.969989
-0.581925
-0.193881
-33.0943
-25.1507
-21.6567
-19.954
-18.9809
-18.3102
-17.76
-17.2448
-16.7181
-16.151
-15.5248
-14.8316
-14.076
-13.2725
-12.4403
-11.5989
-10.7682
-9.96866
-9.22072
-8.54012
-7.93184
-7.38993
-6.90187
-6.45339
-6.0317
-5.62682
-5.23175
-4.8419
-4.45451
-4.06806
-3.68174
-3.2952
-2.90833
-2.52113
-2.13363
-1.74591
-1.35801
-0.969988
-0.58191
-0.193864
-32.1764
-24.7399
-21.461
-19.8517
-18.919
-18.2639
-17.717
-17.1991
-16.6678
-16.0972
-15.4713
-14.7838
-14.0389
-13.2498
-12.4339
-11.6097
-10.7957
-10.0111
-9.27428
-8.59908
-7.99025
-7.44313
-6.94717
-6.48991
-6.05984
-5.64771
-5.24675
-4.85237
-4.46164
-4.07278
-3.68479
-3.29712
-2.9095
-2.52182
-2.13402
-1.74611
-1.3581
-0.970021
-0.58191
-0.19385
-30.9795
-24.2169
-21.2217
-19.7337
-18.8523
-18.2162
-17.6729
-17.1515
-16.6144
-16.0394
-15.4134
-14.7316
-13.9982
-13.2247
-12.4268
-11.6214
-10.8259
-10.0576
-9.33291
-8.66367
-8.05433
-7.50163
-6.99709
-6.53024
-6.09099
-5.67086
-5.26341
-4.86401
-4.46957
-4.07805
-3.6882
-3.29928
-2.91083
-2.52261
-2.13447
-1.74635
-1.35822
-0.970072
-0.581923
-0.193841
-29.5329
-23.6086
-20.9609
-19.6175
-18.7944
-18.1786
-17.638
-17.1118
-16.5678
-15.9876
-15.3605
-14.6834
-13.9603
-13.2014
-12.4204
-11.6329
-10.8548
-10.102
-9.38861
-8.72495
-8.11522
-7.55734
-7.04476
-6.56884
-6.12083
-5.69307
-5.27938
-4.87517
-4.47715
-4.08308
-3.69146
-3.30134
-2.9121
-2.52336
-2.1349
-1.74659
-1.35834
-0.970127
-0.581943
-0.193842
-27.8851
-22.9565
-20.7104
-19.5257
-18.7615
-18.1627
-17.6218
-17.0884
-16.5361
-15.9494
-15.3201
-14.6458
-13.9305
-13.183
-12.4158
-11.643
-10.8794
-10.1392
-9.43502
-8.77593
-8.16589
-7.60377
-7.08455
-6.60109
-6.14578
-5.71161
-5.2927
-4.88445
-4.48344
-4.08723
-3.69414
-3.30302
-2.91312
-2.52397
-2.13525
-1.74678
-1.35844
-0.970175
-0.581968
-0.193853
-26.1245
-22.3289
-20.5143
-19.4845
-18.7685
-18.1775
-17.6299
-17.0858
-16.5232
-15.929
-15.2958
-14.6221
-13.9112
-13.1713
-12.4135
-11.6509
-10.8973
-10.166
-9.46821
-8.81224
-8.20194
-7.63681
-7.11285
-6.62401
-6.16347
-5.72471
-5.30206
-4.89093
-4.4878
-4.09009
-3.69596
-3.30415
-2.9138
-2.52436
-2.13547
-1.74689
-1.3585
-0.970207
-0.581994
-0.193876
-24.435
-21.8405
-20.4285
-19.5159
-18.8213
-18.2224
-17.6601
-17.1019
-16.5278
-15.9254
-15.2875
-14.6123
-13.9027
-13.1661
-12.413
-11.6557
-10.9075
-10.1808
-9.48635
-8.83197
-8.22144
-7.65459
-7.12801
-6.6362
-6.17279
-5.73154
-5.30688
-4.89422
-4.48997
-4.09149
-3.69683
-3.30467
-2.91411
-2.52453
-2.13555
-1.74693
-1.35851
-0.970219
-0.582012
-0.193903
-23.2503
-21.6658
-20.49
-19.6069
-18.8953
-18.2747
-17.6949
-17.1241
-16.5415
-15.9333
-15.2917
-14.6143
-13.9036
-13.1666
-12.4135
-11.6566
-10.9088
-10.1825
-9.48841
-8.83411
-8.22341
-7.65621
-7.12918
-6.63694
-6.17319
-5.73168
-5.30685
-4.8941
-4.48983
-4.09133
-3.69669
-3.30456
-2.91401
-2.52446
-2.1355
-1.74689
-1.35848
-0.9702
-0.582006
-0.193916
-27.2348
-24.2906
-21.9268
-20.3481
-19.284
-18.506
-17.8723
-17.2988
-16.7339
-16.1436
-15.5057
-14.8091
-14.056
-13.2596
-12.4374
-11.6073
-10.7875
-9.99708
-9.25544
-8.57839
-7.97069
-7.42648
-6.93397
-6.47997
-6.05265
-5.64272
-5.24344
-4.85033
-4.46052
-4.07231
-3.68475
-3.29736
-2.90989
-2.52226
-2.13447
-1.74654
-1.35848
-0.970349
-0.58218
-0.194018
-27.0596
-24.1752
-21.8573
-20.3066
-19.2578
-18.4876
-17.8572
-17.2845
-16.7192
-16.1285
-15.491
-14.7963
-14.0464
-13.2544
-12.4371
-11.612
-10.7971
-10.011
-9.27249
-8.59688
-7.98884
-7.44291
-6.9479
-6.49117
-6.06125
-5.64905
-5.24795
-4.85342
-4.46256
-4.0736
-3.68553
-3.29778
-2.91009
-2.52234
-2.13447
-1.7465
-1.35843
-0.970303
-0.582145
-0.193997
-26.7108
-23.9457
-21.7193
-20.2236
-19.205
-18.4497
-17.8253
-17.2536
-16.6873
-16.0955
-15.4588
-14.7678
-14.0247
-13.2414
-12.4339
-11.6191
-10.8142
-10.0371
-9.30529
-8.63294
-8.02452
-7.47543
-6.97567
-6.51364
-6.07867
-5.66207
-5.25736
-4.86002
-4.46706
-4.07659
-3.68745
-3.29898
-2.91081
-2.52274
-2.13468
-1.74659
-1.35846
-0.970298
-0.582126
-0.193973
-26.1999
-23.613
-21.522
-20.1074
-19.1325
-18.3986
-17.7826
-17.2124
-16.6444
-16.051
-15.4151
-14.7289
-13.9947
-13.2231
-12.4288
-11.6277
-10.8363
-10.0713
-9.34864
-8.68073
-8.07193
-7.51873
-7.01271
-6.54372
-6.10206
-5.67959
-5.27008
-4.86899
-4.47322
-4.08071
-3.69014
-3.30068
-2.91185
-2.52335
-2.13502
-1.74677
-1.35854
-0.970323
-0.582121
-0.19395
-25.5458
-23.1942
-21.2804
-19.9702
-19.0508
-18.3433
-17.7375
-17.1689
-16.5989
-16.0034
-15.368
-14.6867
-13.9619
-13.2029
-12.423
-11.6369
-10.8603
-10.1084
-9.39562
-8.73258
-8.12345
-7.5659
-7.05316
-6.57662
-6.12767
-5.6988
-5.28403
-4.87884
-4.47999
-4.08524
-3.6931
-3.30257
-2.91301
-2.52405
-2.13542
-1.74698
-1.35864
-0.970361
-0.582123
-0.19393
-24.7767
-22.7151
-21.0159
-19.829
-18.9729
-18.2944
-17.6992
-17.1318
-16.5592
-15.9611
-15.3257
-14.6485
-13.9319
-13.1843
-12.4177
-11.6457
-10.8828
-10.1431
-9.43934
-8.78077
-8.17142
-7.6099
-7.09096
-6.60738
-6.1516
-5.71673
-5.29702
-4.88797
-4.48624
-4.08941
-3.69581
-3.30428
-2.91407
-2.52467
-2.13577
-1.74716
-1.35873
-0.970394
-0.582128
-0.193918
-23.9369
-22.2144
-20.7579
-19.7046
-18.9134
-18.2626
-17.6762
-17.1087
-16.5327
-15.9313
-15.2948
-14.62
-13.9093
-13.1704
-12.414
-11.6531
-10.901
-10.1708
-9.47405
-8.81895
-8.20938
-7.64471
-7.12082
-6.63163
-6.17039
-5.73072
-5.30708
-4.89498
-4.49099
-4.09254
-3.69781
-3.30552
-2.91481
-2.52509
-2.136
-1.74727
-1.35877
-0.970407
-0.582128
-0.193914
-23.0999
-21.7505
-20.5455
-19.6208
-18.8863
-18.2563
-17.6742
-17.1042
-16.5237
-15.9182
-15.2794
-14.6049
-13.897
-13.1628
-12.4125
-11.6581
-10.9126
-10.1882
-9.49557
-8.84246
-8.23261
-7.66585
-7.13879
-6.64603
-6.18137
-5.73874
-5.31271
-4.8988
-4.49349
-4.09412
-3.69877
-3.30607
-2.91511
-2.52524
-2.13605
-1.74728
-1.35876
-0.97039
-0.582118
-0.193919
-22.3952
-21.4119
-20.4268
-19.5991
-18.8994
-18.2776
-17.6935
-17.1186
-16.5329
-15.923
-15.2811
-14.6047
-13.8963
-13.1624
-12.4129
-11.6598
-10.9157
-10.1925
-9.5008
-8.84796
-8.23776
-7.67017
-7.14206
-6.64826
-6.18272
-5.73941
-5.31293
-4.89874
-4.49328
-4.09385
-3.69849
-3.30583
-2.9149
-2.52507
-2.13591
-1.74717
-1.35868
-0.970334
-0.582089
-0.193925
-22.0465
-21.3222
-20.4478
-19.6476
-18.9467
-18.3176
-17.7267
-17.1468
-16.5575
-15.9447
-15.2998
-14.6201
-13.9076
-13.1691
-12.4148
-11.6569
-10.9082
-10.1812
-9.48669
-8.83225
-8.22168
-7.65481
-7.12821
-6.63638
-6.17296
-5.73168
-5.307
-4.89432
-4.49007
-4.09156
-3.69689
-3.30472
-2.91415
-2.52456
-2.13558
-1.74695
-1.35853
-0.970231
-0.582021
-0.193906
-23.5181
-22.5419
-21.2688
-20.1522
-19.2536
-18.5213
-17.8909
-17.3098
-16.7383
-16.1455
-15.508
-14.8114
-14.0561
-13.2606
-12.4432
-11.6195
-10.8043
-10.0144
-9.2706
-8.59493
-7.99173
-7.45184
-6.96125
-6.5064
-6.07621
-5.66238
-5.25905
-4.86222
-4.46929
-4.07862
-3.6892
-3.30043
-2.91199
-2.52369
-2.13544
-1.74719
-1.35892
-0.970649
-0.582374
-0.194107
-23.416
-22.4612
-21.2125
-20.1149
-19.2285
-18.503
-17.8758
-17.2954
-16.7234
-16.13
-15.4927
-14.7979
-14.0462
-13.2553
-12.4427
-11.6239
-10.8136
-10.0282
-9.28793
-8.61379
-8.01001
-7.46806
-6.9747
-6.517
-6.08421
-5.66821
-5.26314
-4.865
-4.47111
-4.07976
-3.68987
-3.3008
-2.91216
-2.52374
-2.13542
-1.74714
-1.35887
-0.970598
-0.582335
-0.194082
-23.2135
-22.301
-21.1008
-20.0401
-19.1774
-18.4651
-17.8437
-17.2644
-16.691
-16.0959
-15.4587
-14.7677
-14.0235
-13.2418
-12.4391
-11.6303
-10.83
-10.0542
-9.32166
-8.65095
-8.04619
-7.50026
-7.00156
-6.53831
-6.10047
-5.68021
-5.27174
-4.87099
-4.47518
-4.08244
-3.69159
-3.30186
-2.91278
-2.52408
-2.13559
-1.74721
-1.35888
-0.970584
-0.582308
-0.194048
-22.9222
-22.0718
-20.9425
-19.9356
-19.1071
-18.4137
-17.8005
-17.2228
-16.6475
-16.0499
-15.4127
-14.7263
-13.9921
-13.2227
-12.4331
-11.6377
-10.8509
-10.0881
-9.3661
-8.69998
-8.09393
-7.5428
-7.0371
-6.56658
-6.1221
-5.69621
-5.28325
-4.87906
-4.48069
-4.08611
-3.69397
-3.30336
-2.9137
-2.52462
-2.13588
-1.74735
-1.35894
-0.970592
-0.58229
-0.194012
-22.5601
-21.7896
-20.7514
-19.8129
-19.0274
-18.3573
-17.7543
-17.1787
-16.6015
-16.0013
-15.3639
-14.6823
-13.9582
-13.2018
-12.4263
-11.6454
-10.8732
-10.1242
-9.41306
-8.75184
-8.14463
-7.58817
-7.07514
-6.59691
-6.14532
-5.7134
-5.29561
-4.8877
-4.48658
-4.09003
-3.69651
-3.30496
-2.91467
-2.52519
-2.1362
-1.74751
-1.359
-0.970607
-0.582276
-0.193978
-22.1531
-21.4775
-20.5467
-19.6872
-18.9502
-18.306
-17.7141
-17.141
-16.562
-15.9593
-15.3215
-14.6438
-13.9281
-13.183
-12.4201
-11.6523
-10.8933
-10.1566
-9.45482
-8.79793
-8.18986
-7.62883
-7.10929
-6.62414
-6.16612
-5.72873
-5.30656
-4.8953
-4.49172
-4.09342
-3.69868
-3.3063
-2.91548
-2.52564
-2.13644
-1.74762
-1.35904
-0.970608
-0.582259
-0.19395
-21.7378
-21.1673
-20.3532
-19.577
-18.8892
-18.27
-17.6884
-17.1174
-16.5365
-15.9313
-15.2927
-14.6171
-13.907
-13.1697
-12.4159
-11.6578
-10.9084
-10.1805
-9.48536
-8.83153
-8.22281
-7.65837
-7.134
-6.64367
-6.18086
-5.73943
-5.31405
-4.90039
-4.49506
-4.09554
-3.69998
-3.30707
-2.9159
-2.52585
-2.13652
-1.74764
-1.35903
-0.970579
-0.582232
-0.193933
-21.3671
-20.9019
-20.2019
-19.5026
-18.8573
-18.2581
-17.6837
-17.1135
-16.5305
-15.9225
-15.282
-14.6064
-13.8982
-13.1641
-12.4143
-11.6608
-10.916
-10.1923
-9.50027
-8.84772
-8.23839
-7.67195
-7.14492
-6.65186
-6.18664
-5.74327
-5.31646
-4.9018
-4.49581
-4.09587
-3.70007
-3.30702
-2.91579
-2.52573
-2.1364
-1.74753
-1.35893
-0.970509
-0.582189
-0.193926
-21.1146
-20.7368
-20.1279
-19.4837
-18.8646
-18.2755
-17.7033
-17.1318
-16.5463
-15.9355
-15.2922
-14.614
-13.9035
-13.1673
-12.4155
-11.6601
-10.9138
-10.1889
-9.49601
-8.84269
-8.23273
-7.6659
-7.1388
-6.64602
-6.18136
-5.73873
-5.3127
-4.89879
-4.49348
-4.09411
-3.69876
-3.30607
-2.91511
-2.52524
-2.13605
-1.74728
-1.35876
-0.970392
-0.582121
-0.193921
-21.0608
-20.7349
-20.1666
-19.5353
-18.9157
-18.3224
-17.7465
-17.1724
-16.5848
-15.9716
-15.3248
-14.6415
-13.9241
-13.1797
-12.4189
-11.6544
-10.8995
-10.1673
-9.4691
-8.81284
-8.20238
-7.63715
-7.11314
-6.62425
-6.16368
-5.72489
-5.30222
-4.89106
-4.48792
-4.09019
-3.69604
-3.30422
-2.91386
-2.52441
-2.1355
-1.74692
-1.35852
-0.970225
-0.582008
-0.193882
-21.4757
-21.1734
-20.5084
-19.7713
-19.0774
-18.4493
-17.8733
-17.3259
-16.781
-16.2123
-15.5916
-14.8936
-14.1144
-13.2962
-12.4623
-11.6244
-10.7913
-9.97541
-9.20173
-8.51928
-7.92855
-7.40802
-6.93534
-6.49377
-6.07205
-5.66295
-5.2618
-4.86565
-4.4726
-4.08147
-3.69149
-3.3022
-2.91331
-2.52465
-2.13613
-1.74768
-1.35928
-0.970899
-0.582541
-0.194198
-21.4124
-21.119
-20.4668
-19.7411
-19.0554
-18.432
-17.8579
-17.3099
-16.7633
-16.1925
-15.5711
-14.8754
-14.1014
-13.2892
-12.4612
-11.6292
-10.8019
-9.99198
-9.22376
-8.54349
-7.95144
-7.42753
-6.95085
-6.5055
-6.0806
-5.66897
-5.26592
-4.86838
-4.47435
-4.08254
-3.6921
-3.30251
-2.91344
-2.52468
-2.1361
-1.74762
-1.35921
-0.970842
-0.582497
-0.194167
-21.2877
-21.0114
-20.384
-19.6805
-19.0104
-18.3959
-17.8248
-17.2754
-16.7245
-16.1489
-15.5253
-14.8339
-14.0715
-13.272
-12.4559
-11.6355
-10.8205
-10.0237
-9.26812
-8.59246
-7.99745
-7.46658
-6.98188
-6.52906
-6.09791
-5.68134
-5.27455
-4.87427
-4.47827
-4.08508
-3.6937
-3.30348
-2.914
-2.52497
-2.13623
-1.74767
-1.35921
-0.970814
-0.58246
-0.194124
-21.1128
-20.8602
-20.2683
-19.5964
-18.9487
-18.3469
-17.7803
-17.2292
-16.6726
-16.0901
-15.4627
-14.7761
-14.0299
-13.2475
-12.4472
-11.6421
-10.8435
-10.0651
-9.32742
-8.65748
-8.05807
-7.51784
-7.02259
-6.56003
-6.1207
-5.69768
-5.28598
-4.88209
-4.4835
-4.0885
-3.69588
-3.30483
-2.9148
-2.52542
-2.13647
-1.74777
-1.35924
-0.970804
-0.582427
-0.194075
-20.9052
-20.6803
-20.1322
-19.4996
-18.8795
-18.2935
-17.7329
-17.1805
-16.6183
-16.029
-15.3981
-14.7164
-13.9853
-13.2203
-12.437
-11.6487
-10.8677
-10.1084
-9.38774
-8.72388
-8.1206
-7.57117
-7.0652
-6.59254
-6.14464
-5.71481
-5.29794
-4.89024
-4.48893
-4.09203
-3.69811
-3.3062
-2.91561
-2.52587
-2.1367
-1.74787
-1.35926
-0.970791
-0.582393
-0.194025
-20.6878
-20.4914
-19.9919
-19.4032
-18.8139
-18.2454
-17.6919
-17.1394
-16.5726
-15.9778
-15.3443
-14.6666
-13.9469
-13.1962
-12.4277
-11.6544
-10.8891
-10.1456
-9.43829
-8.77966
-8.17373
-7.61693
-7.10195
-6.62057
-6.16519
-5.72938
-5.30798
-4.89698
-4.49334
-4.09483
-3.69984
-3.30722
-2.91618
-2.52617
-2.13683
-1.74791
-1.35925
-0.970757
-0.582352
-0.193983
-20.4896
-20.3177
-19.8671
-19.3226
-18.7639
-18.2126
-17.6664
-17.1143
-16.5443
-15.9454
-15.3098
-14.6341
-13.9212
-13.1798
-12.4213
-11.6584
-10.904
-10.1712
-9.47233
-8.81713
-8.20949
-7.64767
-7.12639
-6.63886
-6.17824
-5.73831
-5.31387
-4.90071
-4.49561
-4.09614
-3.70055
-3.30756
-2.9163
-2.52617
-2.13677
-1.74783
-1.35917
-0.970685
-0.582298
-0.193952
-20.3452
-20.1878
-19.7799
-19.2741
-18.7412
-18.204
-17.6635
-17.112
-16.5396
-15.9375
-15.2993
-14.6232
-13.9121
-13.1737
-12.4188
-11.6598
-10.9097
-10.1811
-9.48562
-8.83152
-8.22264
-7.65812
-7.13372
-6.64339
-6.1806
-5.7392
-5.31385
-4.90022
-4.49492
-4.09542
-3.69988
-3.30699
-2.91583
-2.5258
-2.13648
-1.74761
-1.359
-0.970566
-0.582225
-0.193932
-20.289
-20.1301
-19.752
-19.2725
-18.7555
-18.226
-17.6882
-17.1365
-16.5623
-15.9574
-15.316
-14.6364
-13.9216
-13.1793
-12.4203
-11.6572
-10.9036
-10.1723
-9.47479
-8.8192
-8.20935
-7.64452
-7.12057
-6.63136
-6.17013
-5.73049
-5.30688
-4.89481
-4.49085
-4.09242
-3.69771
-3.30544
-2.91475
-2.52505
-2.13596
-1.74725
-1.35875
-0.970397
-0.582125
-0.193915
-20.3277
-20.1656
-19.8026
-19.3303
-18.8138
-18.2826
-17.7429
-17.1901
-16.6148
-16.0077
-15.362
-14.6754
-13.9511
-13.1971
-12.4252
-11.6491
-10.8832
-10.1415
-9.43632
-8.77662
-8.16624
-7.60394
-7.08462
-6.60112
-6.14579
-5.71161
-5.2927
-4.88445
-4.48345
-4.08724
-3.69415
-3.30303
-2.91313
-2.52397
-2.13525
-1.74678
-1.35845
-0.970184
-0.58198
-0.193861
-20.312
-20.2265
-19.8642
-19.3771
-18.856
-18.3411
-17.8427
-17.3565
-16.8689
-16.357
-15.7814
-15.0849
-14.2328
-13.3616
-12.4923
-11.6246
-10.7548
-9.88048
-9.02013
-8.32575
-7.76859
-7.29228
-6.85815
-6.44522
-6.04302
-5.64643
-5.25295
-4.8613
-4.47076
-4.08095
-3.6916
-3.30257
-2.91375
-2.52507
-2.13649
-1.74797
-1.35951
-0.971079
-0.582677
-0.194297
-20.2696
-20.1896
-19.8344
-19.3538
-18.8375
-18.3248
-17.8261
-17.3373
-16.8452
-16.3283
-15.7501
-15.0571
-14.2146
-13.3522
-12.4908
-11.6305
-10.7681
-9.90212
-9.05234
-8.36178
-7.8016
-7.31907
-6.87836
-6.45977
-6.05315
-5.65331
-5.2575
-4.86422
-4.47258
-4.08203
-3.6922
-3.30286
-2.91386
-2.52507
-2.13644
-1.7479
-1.35944
-0.971015
-0.582628
-0.194262
-20.1865
-20.1164
-19.7747
-19.3067
-18.7992
-18.2904
-17.7906
-17.2956
-16.7932
-16.2641
-15.6776
-14.9899
-14.1715
-13.329
-12.4835
-11.6377
-10.7911
-9.94567
-9.12253
-8.43874
-7.86998
-7.37343
-6.91897
-6.48898
-6.07361
-5.66735
-5.26696
-4.87047
-4.47663
-4.08458
-3.69377
-3.30379
-2.91437
-2.52533
-2.13654
-1.74792
-1.35941
-0.970975
-0.582581
-0.194209
-20.074
-20.0163
-19.6929
-19.2423
-18.7471
-18.2441
-17.7429
-17.2397
-16.7232
-16.1763
-15.5747
-14.8895
-14.1096
-13.2956
-12.4707
-11.643
-10.8176
-10.0027
-9.22249
-8.54441
-7.96118
-7.44488
-6.97205
-6.5271
-6.10034
-5.68571
-5.27935
-4.87869
-4.48197
-4.08798
-3.69587
-3.30505
-2.91509
-2.52572
-2.13673
-1.74799
-1.35942
-0.970945
-0.582533
-0.194147
-19.9488
-19.9027
-19.6001
-19.1701
-18.69
-18.1944
-17.6927
-17.1816
-16.6513
-16.0875
-15.4732
-14.792
-14.0429
-13.2571
-12.4549
-11.6483
-10.8467
-10.0626
-9.31774
-8.64721
-8.05223
-7.51754
-7.02661
-6.56649
-6.12797
-5.70465
-5.29207
-4.88705
-4.48736
-4.09137
-3.69795
-3.30627
-2.91578
-2.52608
-2.13689
-1.74804
-1.35941
-0.970906
-0.58248
-0.194083
-19.8312
-19.792
-19.5099
-19.1017
-18.638
-18.1511
-17.6504
-17.1334
-16.5922
-16.0159
-15.3931
-14.7159
-13.9866
-13.2226
-12.4403
-11.6529
-10.8725
-10.1128
-9.39159
-8.72808
-8.12597
-7.57769
-7.0723
-6.59954
-6.151
-5.72023
-5.30232
-4.89362
-4.49145
-4.09384
-3.69938
-3.30706
-2.91618
-2.52624
-2.13693
-1.74801
-1.35935
-0.970839
-0.582416
-0.194025
-19.7438
-19.7026
-19.4373
-19.0495
-18.6019
-18.124
-17.6254
-17.1049
-16.5564
-15.9717
-15.3435
-14.6684
-13.9497
-13.199
-12.43
-11.6559
-10.8899
-10.1458
-9.4381
-8.77923
-8.17316
-7.61631
-7.10132
-6.61997
-6.16465
-5.72891
-5.30758
-4.89664
-4.49305
-4.09459
-3.69965
-3.30706
-2.91605
-2.52607
-2.13675
-1.74785
-1.35921
-0.970728
-0.582336
-0.193979
-19.7077
-19.6515
-19.3966
-19.0255
-18.5914
-18.1215
-17.6255
-17.1035
-16.5506
-15.9605
-15.3282
-14.6522
-13.9363
-13.19
-12.4254
-11.656
-10.8955
-10.1575
-9.45496
-8.79754
-8.18915
-7.62796
-7.10839
-6.62327
-6.16533
-5.72803
-5.30595
-4.89479
-4.4913
-4.09307
-3.69839
-3.30607
-2.91529
-2.52549
-2.13632
-1.74753
-1.35898
-0.970566
-0.582236
-0.193946
-19.7333
-19.6497
-19.3995
-19.0397
-18.6148
-18.1502
-17.6563
-17.1341
-16.5791
-15.9857
-15.3492
-14.6687
-13.9483
-13.1969
-12.4268
-11.6518
-10.8865
-10.145
-9.44002
-8.78067
-8.17085
-7.6091
-7.09009
-6.60653
-6.15082
-5.71604
-5.29642
-4.88747
-4.48583
-4.08907
-3.69553
-3.30405
-2.91389
-2.52453
-2.13566
-1.74708
-1.35867
-0.970356
-0.58211
-0.193915
-19.7947
-19.6949
-19.4523
-19.0995
-18.6778
-18.2144
-17.7213
-17.1999
-16.6451
-16.05
-15.4087
-14.7195
-13.9868
-13.2202
-12.4333
-11.6413
-10.8599
-10.1048
-9.38987
-8.72529
-8.11503
-7.5569
-7.04422
-6.56829
-6.12033
-5.69263
-5.27901
-4.87486
-4.4769
-4.08288
-3.6913
-3.30121
-2.91199
-2.52328
-2.13484
-1.74654
-1.35831
-0.970111
-0.581942
-0.193848
-19.6279
-19.599
-19.3795
-19.0433
-18.6496
-18.2351
-17.8199
-17.4124
-17.0121
-16.604
-16.1355
-15.4708
-14.3939
-13.4381
-12.5249
-11.6232
-10.7113
-9.75025
-8.63693
-7.95386
-7.48918
-7.10203
-6.73445
-6.36691
-5.99442
-5.61683
-5.23527
-4.85097
-4.46489
-4.07773
-3.68992
-3.30176
-2.91341
-2.52498
-2.13652
-1.74806
-1.35962
-0.971188
-0.582782
-0.194402
-19.5966
-19.5728
-19.3579
-19.0255
-18.6338
-18.2193
-17.8012
-17.3879
-16.9789
-16.5608
-16.0867
-15.4294
-14.3734
-13.4283
-12.5248
-11.6318
-10.7271
-9.77431
-8.68535
-8.01031
-7.53914
-7.1405
-6.76197
-6.3858
-6.00704
-5.62509
-5.24056
-4.85428
-4.4669
-4.07889
-3.69055
-3.30206
-2.91352
-2.52498
-2.13647
-1.74798
-1.35954
-0.971118
-0.582728
-0.194362
-19.5357
-19.5208
-19.3144
-18.9887
-18.6007
-18.1854
-17.761
-17.3346
-16.9051
-16.4604
-15.9627
-15.3112
-14.3156
-13.3996
-12.5168
-11.6421
-10.7567
-9.83258
-8.80964
-8.14274
-7.6478
-7.22037
-6.81778
-6.42376
-6.03243
-5.64184
-5.25147
-4.86127
-4.47131
-4.0816
-3.69217
-3.30299
-2.91402
-2.52522
-2.13655
-1.74799
-1.3595
-0.971067
-0.582672
-0.194302
-19.4565
-19.4518
-19.2561
-18.9393
-18.5562
-18.14
-17.7073
-17.2633
-16.8046
-16.3178
-15.7701
-15.0968
-14.23
-13.3614
-12.5009
-11.6424
-10.7797
-9.90454
-9.02219
-8.34072
-7.7977
-7.32652
-6.89082
-6.47319
-6.06544
-5.66362
-5.26566
-4.87039
-4.47706
-4.08516
-3.69432
-3.30424
-2.91471
-2.52557
-2.13671
-1.74803
-1.35948
-0.97102
-0.582611
-0.194228
-19.375
-19.3782
-19.1929
-18.886
-18.5089
-18.0924
-17.6515
-17.1901
-16.7036
-16.1795
-15.5946
-14.9163
-14.1293
-13.3088
-12.4784
-11.6452
-10.8135
-9.98972
-9.19698
-8.51817
-7.94106
-7.43192
-6.96482
-6.52373
-6.09929
-5.68589
-5.28007
-4.87955
-4.48277
-4.08863
-3.69636
-3.3054
-2.91532
-2.52586
-2.13682
-1.74804
-1.35944
-0.970958
-0.58254
-0.19415
-19.3096
-19.314
-19.1365
-18.8389
-18.4682
-18.0527
-17.6057
-17.1304
-16.6227
-16.073
-15.467
-14.7908
-14.0444
-13.2595
-12.4567
-11.6488
-10.8462
-10.0617
-9.31665
-8.64607
-8.05108
-7.51641
-7.02555
-6.56553