# vtk DataFile Version 2.0
I need something to put here
ASCII

DATASET STRUCTURED_GRID
DIMENSIONS 41 11 21
POINTS 9471 float
0.000000 1.000000 0.000000
0.100000 1.000000 0.000000
0.200000 1.000000 0.000000
0.300000 1.000000 0.000000
0.400000 1.000000 0.000000
0.500000 1.000000 0.000000
0.600000 1.000000 0.000000
0.700000 1.000000 0.000000
0.800000 1.000000 0.000000
0.900000 1.000000 0.000000
1.000000 1.000000 0.000000
1.100000 1.000000 0.000000
1.200000 1.000000 0.000000
1.300000 1.000000 0.000000
1.400000 1.000000 0.000000
1.500000 1.000000 0.000000
1.600000 1.000000 0.000000
1.700000 1.000000 0.000000
1.800000 1.000000 0.000000
1.900000 1.000000 0.000000
2.000000 1.000000 0.000000
2.100000 1.000000 0.000000
2.200000 1.000000 0.000000
2.300000 1.000000 0.000000
2.400000 1.000000 0.000000
2.500000 1.000000 0.000000
2.600000 1.000000 0.000000
2.700000 1.000000 0.000000
2.800000 1.000000 0.000000
2.900000 1.000000 0.000000
3.000000 1.000000 0.000000
3.100000 1.000000 0.000000
3.200000 1.000000 0.000000
3.300000 1.000000 0.000000
3.400000 1.000000 0.000000
3.500000 1.000000 0.000000
3.600000 1.000000 0.000000
3.700000 1.000000 0.000000
3.800000 1.000000 0.000000
3.900000 1.000000 0.000000
4.000000 1.000000 0.000000
0.000000 1.100000 0.000000
0.100000 1.100000 0.000000
0.200000 1.100000 0.000000
0.300000 1.100000 0.000000
0.400000 1.100000 0.000000
0.500000 1.100000 0.000000
0.600000 1.100000 0.000000
0.700000 1.100000 0.000000
0.800000 1.100000 0.000000
0.900000 1.100000 0.000000
1.000000 1.100000 0.000000
1.100000 1.100000 0.000000
1.200000 1.100000 0.000000
1.300000 1.100000 0.000000
1.400000 1.100000 0.000000
1.500000 1.100000 0.000000
1.600000 1.100000 0.000000
1.700000 1.100000 0.000000
1.800000 1.100000 0.000000
1.900000 1.100000 0.000000
2.000000 1.100000 0.000000
2.100000 1.100000 0.000000
2.200000 1.100000 0.000000
2.300000 1.100000 0.000000
2.400000 1.100000 0.000000
2.500000 1.100000 0.000000
2.600000 1.100000 0.000000
2.700000 1.100000 0.000000
2.800000 1.100000 0.000000
2.900000 1.100000 0.000000
3.000000 1.100000 0.000000
3.100000 1.100000 0.000000
3.200000 1.100000 0.000000
3.300000 1.100000 0.000000
3.400000 1.100000 0.000000
3.500000 1.100000 0.000000
3.600000 1.100000 0.000000
3.700000 1.100000 0.000000
3.800000 1.100000 0.000000
3.900000 1.100000 0.000000
4.000000 1.100000 0.000000
0.000000 1.200000 0.000000
0.100000 1.200000 0.000000
0.200000 1.200000 0.000000
0.300000 1.200000 0.000000
0.400000 1.200000 0.000000
0.500000 1.200000 0.000000
0.600000 1.200000 0.000000
0.700000 1.200000 0.000000
0.800000 1.200000 0.000000
0.900000 1.200000 0.000000
1.000000 1.200000 0.000000
1.100000 1.200000 0.000000
1.200000 1.200000 0.000000
1.300000 1.200000 0.000000
1.400000 1.200000 0.000000
1.500000 1.200000 0.000000
1.600000 1.200000 0.000000
1.700000 1.200000 0.000000
1.800000 1.200000 0.000000
1.900000 1.200000 0.000000
2.000000 1.200000 0.000000
2.100000 1.200000 0.000000
2.200000 1.200000 0.000000
2.300000 1.200000 0.000000
2.400000 1.200000 0.000000
2.500000 1.200000 0.000000
2.600000 1.200000 0.000000
2.700000 1.200000 0.000000
2.800000 1.200000 0.000000
2.900000 1.200000 0.000000
3.000000 1.200000 0.000000
3.100000 1.200000 0.000000
3.200000 1.200000 0.000000
3.300000 1.200000 0.000000
3.400000 1.200000 0.000000
3.500000 1.200000 0.000000
3.600000 1.200000 0.000000
3.700000 1.200000 0.000000
3.800000 1.200000 0.000000
3.900000 1.200000 0.000000
4.000000 1.200000 0.000000
0.000000 1.300000 0.000000
0.100000 1.300000 0.000000
0.200000 1.300000 0.000000
0.300000 1.300000 0.000000
0.400000 1.300000 0.000000
0.500000 1.300000 0.000000
0.600000 1.300000 0.000000
0.700000 1.300000 0.000000
0.800000 1.300000 0.000000
0.900000 1.300000 0.000000
1.000000 1.300000 0.000000
1.100000 1.300000 0.000000
1.200000 1.300000 0.000000
1.300000 1.300000 0.000000
1.400000 1.300000 0.000000
1.500000 1.300000 0.000000
1.600000 1.300000 0.000000
1.700000 1.300000 0.000000
1.800000 1.300000 0.000000
1.900000 1.300000 0.000000
2.000000 1.300000 0.000000
2.100000 1.300000 0.000000
2.200000 1.300000 0.000000
2.300000 1.300000 0.000000
2.400000 1.300000 0.000000
2.500000 1.300000 0.000000
2.600000 1.300000 0.000000
2.700000 1.300000 0.000000
2.800000 1.300000 0.000000
2.900000 1.300000 0.000000
3.000000 1.300000 0.000000
3.100000 1.300000 0.000000
3.200000 1.300000 0.000000
3.300000 1.300000 0.000000
3.400000 1.300000 0.000000
3.500000 1.300000 0.000000
3.600000 1.300000 0.000000
3.700000 1.300000 0.000000
3.800000 1.300000 0.000000
3.900000 1.300000 0.000000
4.000000 1.300000 0.000000
0.000000 1.400000 0.000000
0.100000 1.400000 0.000000
0.200000 1.400000 0.000000
0.300000 1.400000 0.000000
0.400000 1.400000 0.000000
0.500000 1.400000 0.000000
0.600000 1.400000 0.000000
0.700000 1.400000 0.000000
0.800000 1.400000 0.000000
0.900000 1.400000 0.000000
1.000000 1.400000 0.000000
1.100000 1.400000 0.000000
1.200000 1.400000 0.000000
1.300000 1.400000 0.000000
1.400000 1.400000 0.000000
1.500000 1.400000 0.000000
1.600000 1.400000 0.000000
1.700000 1.400000 0.000000
1.800000 1.400000 0.000000
1.900000 1.400000 0.000000
2.000000 1.400000 0.000000
2.100000 1.400000 0.000000
2.200000 1.400000 0.000000
2.300000 1.400000 0.000000
2.400000 1.400000 0.000000
2.500000 1.400000 0.000000
2.600000 1.400000 0.000000
2.700000 1.400000 0.000000
2.800000 1.400000 0.000000
2.900000 1.400000 0.000000
3.000000 1.400000 0.000000
3.100000 1.400000 0.000000
3.200000 1.400000 0.000000
3.300000 1.400000 0.000000
3.400000 1.400000 0.000000
3.500000 1.400000 0.000000
3.600000 1.400000 0.000000
3.700000 1.400000 0.000000
3.800000 1.400000 0.000000
3.900000 1.400000 0.000000
4.000000 1.400000 0.000000
0.000000 1.500000 0.000000
0.100000 1.500000 0.000000
0.200000 1.500000 0.000000
0.300000 1.500000 0.000000
0.400000 1.500000 0.000000
0.500000 1.500000 0.000000
0.600000 1.500000 0.000000
0.700000 1.500000 0.000000
0.800000 1.500000 0.000000
0.900000 1.500000 0.000000
1.000000 1.500000 0.000000
1.100000 1.500000 0.000000
1.200000 1.500000 0.000000
1.300000 1.500000 0.000000
1.400000 1.500000 0.000000
1.500000 1.500000 0.000000
1.600000 1.500000 0.000000
1.700000 1.500000 0.000000
1.800000 1.500000 0.000000
1.900000 1.500000 0.000000
2.000000 1.500000 0.000000
2.100000 1.500000 0.000000
2.200000 1.500000 0.000000
2.300000 1.500000 0.000000
2.400000 1.500000 0.000000
2.500000 1.500000 0.000000
2.600000 1.500000 0.000000
2.700000 1.500000 0.000000
2.800000 1.500000 0.000000
2.900000 1.500000 0.000000
3.000000 1.500000 0.000000
3.100000 1.500000 0.000000
3.200000 1.500000 0.000000
3.300000 1.500000 0.000000
3.400000 1.500000 0.000000
3.500000 1.500000 0.000000
3.600000 1.500000 0.000000
3.700000 1.500000 0.000000
3.800000 1.500000 0.000000
3.900000 1.500000 0.000000
4.000000 1.500000 0.000000
0.000000 1.600000 0.000000
0.100000 1.600000 0.000000
0.200000 1.600000 0.000000
0.300000 1.600000 0.000000
0.400000 1.600000 0.000000
0.500000 1.600000 0.000000
0.600000 1.600000 0.000000
0.700000 1.600000 0.000000
0.800000 1.600000 0.000000
0.900000 1.600000 0.000000
1.000000 1.600000 0.000000
1.100000 1.600000 0.000000
1.200000 1.600000 0.000000
1.300000 1.600000 0.000000
1.400000 1.600000 0.000000
1.500000 1.600000 0.000000
1.600000 1.600000 0.000000
1.700000 1.600000 0.000000
1.800000 1.600000 0.000000
1.900000 1.600000 0.000000
2.000000 1.600000 0.000000
2.100000 1.600000 0.000000
2.200000 1.600000 0.000000
2.300000 1.600000 0.000000
2.400000 1.600000 0.000000
2.500000 1.600000 0.000000
2.600000 1.600000 0.000000
2.700000 1.600000 0.000000
2.800000 1.600000 0.000000
2.900000 1.600000 0.000000
3.000000 1.600000 0.000000
3.100000 1.600000 0.000000
3.200000 1.600000 0.000000
3.300000 1.600000 0.000000
3.400000 1.600000 0.000000
3.500000 1.600000 0.000000
3.600000 1.600000 0.000000
3.700000 1.600000 0.000000
3.800000 1.600000 0.000000
3.900000 1.600000 0.000000
4.000000 1.600000 0.000000
0.000000 1.700000 0.000000
0.100000 1.700000 0.000000
0.200000 1.700000 0.000000
0.300000 1.700000 0.000000
0.400000 1.700000 0.000000
0.500000 1.700000 0.000000
0.600000 1.700000 0.000000
0.700000 1.700000 0.000000
0.800000 1.700000 0.000000
0.900000 1.700000 0.000000
1.000000 1.700000 0.000000
1.100000 1.700000 0.000000
1.200000 1.700000 0.000000
1.300000 1.700000 0.000000
1.400000 1.700000 0.000000
1.500000 1.700000 0.000000
1.600000 1.700000 0.000000
1.700000 1.700000 0.000000
1.800000 1.700000 0.000000
1.900000 1.700000 0.000000
2.000000 1.700000 0.000000
2.100000 1.700000 0.000000
2.200000 1.700000 0.000000
2.300000 1.700000 0.000000
2.400000 1.700000 0.000000
2.500000 1.700000 0.000000
2.600000 1.700000 0.000000
2.700000 1.700000 0.000000
2.800000 1.700000 0.000000
2.900000 1.700000 0.000000
3.000000 1.700000 0.000000
3.100000 1.700000 0.000000
3.200000 1.700000 0.000000
3.300000 1.700000 0.000000
3.400000 1.700000 0.000000
3.500000 1.700000 0.000000
3.600000 1.700000 0.000000
3.700000 1.700000 0.000000
3.800000 1.700000 0.000000
3.900000 1.700000 0.000000
4.000000 1.700000 0.000000
0.000000 1.800000 0.000000
0.100000 1.800000 0.000000
0.200000 1.800000 0.000000
0.300000 1.800000 0.000000
0.400000 1.800000 0.000000
0.500000 1.800000 0.000000
0.600000 1.800000 0.000000
0.700000 1.800000 0.000000
0.800000 1.800000 0.000000
0.900000 1.800000 0.000000
1.000000 1.800000 0.000000
1.100000 1.800000 0.000000
1.200000 1.800000 0.000000
1.300000 1.800000 0.000000
1.400000 1.800000 0.000000
1.500000 1.800000 0.000000
1.600000 1.800000 0.000000
1.700000 1.800000 0.000000
1.800000 1.800000 0.000000
1.900000 1.800000 0.000000
2.000000 1.800000 0.000000
2.100000 1.800000 0.000000
2.200000 1.800000 0.000000
2.300000 1.800000 0.000000
2.400000 1.800000 0.000000
2.500000 1.800000 0.000000
2.600000 1.800000 0.000000
2.700000 1.800000 0.000000
2.800000 1.800000 0.000000
2.900000 1.800000 0.000000
3.000000 1.800000 0.000000
3.100000 1.800000 0.000000
3.200000 1.800000 0.000000
3.300000 1.800000 0.000000
3.400000 1.800000 0.000000
3.500000 1.800000 0.000000
3.600000 1.800000 0.000000
[...]
CELL_DATA 8000
SCALARS pressure float 1
LOOKUP_TABLE default
-40.6018
-32.2029
-28.4987
-26.6404
-25.5089
-24.669
-23.9439
-23.2511
-22.5417
-21.7788
-20.935
-19.9977
-18.9757
-17.8943
-16.7808
-15.6566
-14.5413
-13.4583
-12.4383
-11.5103
-10.6859
-9.95644
-9.30182
-8.69987
-8.13212
-7.58525
-7.05054
-6.52259
-5.99825
-5.47572
-4.95403
-4.43268
-3.9114
-3.39009
-2.8687
-2.34722
-1.82566
-1.30403
-0.782363
-0.260716
-40.2675
-32.0388
-28.4087
-26.5844
-25.4689
-24.6361
-23.9128
-23.219
-22.5075
-21.7432
-20.9002
-19.967
-18.952
-17.8793
-16.775
-15.6603
-14.5545
-13.4806
-12.4679
-11.5439
-10.7198
-9.98757
-9.32842
-8.72142
-8.14889
-7.59791
-7.05987
-6.52935
-6.00307
-5.47912
-4.95641
-4.43432
-3.91253
-3.39085
-2.86921
-2.34756
-1.82587
-1.30416
-0.782428
-0.26073
-39.6051
-31.7168
-28.2345
-26.4778
-25.3941
-24.5752
-23.8557
-23.1601
-22.4448
-21.6778
-20.8364
-19.9108
-18.9087
-17.852
-16.765
-15.6679
-14.5797
-13.5226
-12.5233
-11.6067
-10.7829
-10.0455
-9.37796
-8.7616
-8.1802
-7.62159
-7.07738
-6.54206
-6.01217
-5.48555
-4.96091
-4.43744
-3.91467
-3.39232
-2.87019
-2.34821
-1.82629
-1.30441
-0.782558
-0.260761
-38.6291
-31.251
-27.9891
-26.3321
-25.2948
-24.4959
-23.7822
-23.0845
-22.3641
-21.5936
-20.7541
-19.8381
-18.8528
-17.817
-16.7523
-15.6781
-14.613
-13.5776
-12.5957
-11.6886
-10.8653
-10.1212
-9.44281
-8.81431
-8.22139
-7.65282
-7.1005
-6.55888
-6.02422
-5.49409
-4.96689
-4.44159
-3.91753
-3.39426
-2.87151
-2.34908
-1.82685
-1.30475
-0.78273
-0.260801
-37.3638
-30.6644
-27.6926
-26.1645
-25.1857
-24.4116
-23.705
-23.0052
-22.2792
-21.5046
-20.6669
-19.7609
-18.7932
-17.7797
-16.7391
-15.6898
-14.6494
-13.6373
-12.674
-11.777
-10.9544
-10.2033
-9.51341
-8.87194
-8.26658
-7.68719
-7.12603
-6.57747
-6.03756
-5.50354
-4.97352
-4.4462
-3.92069
-3.39642
-2.87296
-2.35004
-1.82747
-1.30513
-0.782921
-0.260845
-35.849
-29.9924
-27.3744
-25.9985
-25.0857
-24.338
-23.6384
-22.9359
-22.2038
-21.4247
-20.5879
-19.6906
-18.7387
-17.7455
-16.7274
-15.7013
-14.6843
-13.6937
-12.7474
-11.8598
-11.038
-10.2807
-9.58034
-8.92686
-8.30984
-7.72021
-7.15061
-6.59542
-6.05046
-5.51269
-4.97993
-4.45064
-3.92375
-3.3985
-2.87436
-2.35097
-1.82807
-1.30549
-0.783108
-0.260891
-34.1472
-29.2881
-27.075
-25.8636
-25.0162
-24.2914
-23.5954
-22.8882
-22.1488
-21.3643
-20.5271
-19.6358
-18.6959
-17.7187
-16.7188
-15.7117
-14.7136
-13.7406
-12.808
-11.928
-11.107
-10.3448
-9.63612
-8.97286
-8.34625
-7.74809
-7.17143
-6.61065
-6.06141
-5.52045
-4.98536
-4.45441
-3.92634
-3.40026
-2.87554
-2.35175
-1.82857
-1.30579
-0.783269
-0.260937
-32.3615
-28.6305
-26.8474
-25.7931
-24.9979
-24.2848
-23.5852
-22.8691
-22.1204
-21.3291
-20.4894
-19.6007
-18.6681
-17.7015
-16.714
-15.7202
-14.7353
-13.7743
-12.8512
-11.9765
-11.1561
-10.3907
-9.67615
-9.00602
-8.37258
-7.76832
-7.18655
-6.62172
-6.06937
-5.52609
-4.98932
-4.45715
-3.92821
-3.40153
-2.87639
-2.35231
-1.82893
-1.30601
-0.783391
-0.260983
-30.6814
-28.1396
-26.7535
-25.8151
-25.0419
-24.3218
-23.6081
-22.8782
-22.1181
-21.3188
-20.4748
-19.5857
-18.6557
-17.6941
-16.7128
-15.726
-14.7481
-13.7937
-12.8756
-12.0037
-11.1837
-10.4164
-9.69864
-9.02466
-8.38739
-7.7797
-7.19506
-6.62793
-6.07383
-5.52925
-4.99152
-4.45866
-3.92925
-3.40223
-2.87686
-2.35261
-1.82912
-1.30613
-0.783465
-0.261028
-29.5242
-27.984
-26.8315
-25.9203
-25.127
-24.3819
-23.6479
-22.9033
-22.1331
-21.327
-20.4788
-19.5872
-18.6564
-17.6947
-16.714
-15.7281
-14.7514
-13.7981
-12.8808
-12.0094
-11.1893
-10.4215
-9.70299
-9.02815
-8.39007
-7.78166
-7.19646
-6.6289
-6.07448
-5.52967
-4.99179
-4.45883
-3.92935
-3.40228
-2.87689
-2.35263
-1.82913
-1.30613
-0.783469
-0.261047
-33.743
-30.8251
-28.4457
-26.8067
-25.6435
-24.738
-23.9574
-23.223
-22.4837
-21.7022
-20.8525
-19.9223
-18.9175
-17.8601
-16.7736
-15.6774
-14.5895
-13.5312
-12.5292
-11.6098
-10.7836
-10.0439
-9.37447
-8.75692
-8.1751
-7.61671
-7.07309
-6.53854
-6.00944
-5.48352
-4.95945
-4.43644
-3.914
-3.39188
-2.86993
-2.34806
-1.82623
-1.30441
-0.782614
-0.260844
-33.5445
-30.6886
-28.3573
-26.7483
-25.602
-24.7051
-23.928
-23.1939
-22.4536
-21.6716
-20.8229
-19.8962
-18.8973
-17.8472
-16.7684
-15.6802
-14.6003
-13.5497
-12.5539
-11.6382
-10.8124
-10.0706
-9.39758
-8.7759
-8.19008
-7.62816
-7.08164
-6.54481
-6.01395
-5.48673
-4.96171
-4.43801
-3.91508
-3.39262
-2.87043
-2.34839
-1.82644
-1.30454
-0.782678
-0.260855
-33.1535
-30.4218
-28.1866
-26.6368
-25.524
-24.644
-23.8736
-23.1404
-22.3984
-21.6151
-20.7683
-19.8482
-18.8604
-17.8238
-16.7595
-15.686
-14.6211
-13.5846
-12.6004
-11.6912
-10.8661
-10.1204
-9.44068
-8.81133
-8.21807
-7.64961
-7.09769
-6.55658
-6.02245
-5.49279
-4.96599
-4.44099
-3.91715
-3.39403
-2.87138
-2.34902
-1.82685
-1.30479
-0.782802
-0.260877
-32.584
-30.0386
-27.9462
-26.4836
-25.4193
-24.5638
-23.8033
-23.0715
-22.3273
-21.5423
-20.6978
-19.7861
-18.8126
-17.7936
-16.7481
-15.694
-14.6484
-13.6305
-12.6614
-11.7606
-10.9364
-10.1855
-9.49718
-8.85786
-8.25491
-7.6779
-7.11889
-6.57216
-6.03372
-5.50083
-4.97166
-4.44495
-3.91989
-3.39591
-2.87265
-2.34987
-1.82739
-1.30512
-0.782968
-0.260907
-31.8603
-29.5621
-27.6563
-26.3057
-25.3026
-24.4774
-23.7288
-22.999
-22.2523
-21.4653
-20.623
-19.7201
-18.7616
-17.7614
-16.7362
-15.703
-14.6785
-13.6803
-12.7274
-11.8355
-11.0124
-10.2563
-9.55871
-8.90871
-8.29529
-7.70898
-7.14222
-6.58933
-6.04615
-5.50971
-4.97792
-4.44933
-3.92291
-3.39798
-2.87405
-2.3508
-1.82799
-1.30548
-0.78315
-0.26094
-31.0217
-29.0272
-27.3458
-26.1261
-25.1921
-24.3996
-23.6635
-22.9353
-22.1859
-21.3964
-20.5557
-19.6603
-18.7151
-17.732
-16.7257
-15.712
-14.7071
-13.7273
-12.7889
-11.9054
-11.0835
-10.3227
-9.61677
-8.9569
-8.3337
-7.73862
-7.16452
-6.60576
-6.05805
-5.51821
-4.98391
-4.4535
-3.92579
-3.39995
-2.87538
-2.35168
-1.82856
-1.30582
-0.783324
-0.260974
-30.1294
-28.4846
-27.0532
-25.973
-25.1082
-24.3461
-23.6199
-22.8916
-22.1382
-21.3454
-20.5048
-19.6145
-18.6793
-17.7093
-16.7179
-15.72
-14.7308
-13.7656
-12.8388
-11.962
-11.1412
-10.3767
-9.6642
-8.99641
-8.36527
-7.76303
-7.18289
-6.6193
-6.06784
-5.52519
-4.98882
-4.45692
-3.92814
-3.40155
-2.87645
-2.35239
-1.82901
-1.30609
-0.783464
-0.261006
-29.2759
-28.0047
-26.827
-25.8776
-25.071
-24.33
-23.6073
-22.8752
-22.116
-21.3184
-20.4759
-19.5876
-18.6578
-17.6958
-16.7139
-15.7261
-14.7471
-13.7913
-12.8721
-11.9995
-11.1795
-10.4127
-9.69582
-9.02277
-8.38633
-7.77929
-7.1951
-6.62826
-6.0743
-5.52976
-4.99202
-4.45913
-3.92965
-3.40256
-2.87713
-2.35283
-1.82929
-1.30626
-0.78355
-0.261035
-28.5995
-27.6826
-26.7226
-25.8693
-25.0947
-24.3578
-23.6291
-22.8883
-22.1211
-21.3174
-20.4712
-19.5814
-18.6523
-17.6925
-16.7136
-15.7293
-14.7541
-13.802
-12.8856
-12.0147
-11.1948
-10.427
-9.70828
-9.03302
-8.3944
-7.78539
-7.19958
-6.63146
-6.07654
-5.53129
-4.99305
-4.4598
-3.93008
-3.40283
-2.87729
-2.35292
-1.82934
-1.30628
-0.783562
-0.261052
-28.3036
-27.6386
-26.7928
-25.9641
-25.1797
-24.425
-23.68
-22.927
-22.1512
-21.3413
-20.4902
-19.5963
-18.6631
-17.6993
-16.7165
-15.7286
-14.75
-13.7951
-12.8766
-12.0045
-11.1842
-10.4168
-9.69895
-9.02489
-8.38757
-7.77983
-7.19516
-6.62801
-6.07389
-5.52929
-4.99155
-4.45869
-3.92927
-3.40224
-2.87687
-2.35262
-1.82913
-1.30614
-0.783467
-0.261023
-30.0186
-29.038
-27.7278
-26.5448
-25.5543
-24.7096
-23.9505
-23.2265
-22.4961
-21.7241
-20.8812
-19.9494
-18.9344
-17.8702
-16.7831
-15.6892
-14.5999
-13.5319
-12.5148
-11.5887
-10.7655
-10.033
-9.37048
-8.75767
-8.17837
-7.62089
-7.07725
-6.54223
-6.01249
-5.48596
-4.96134
-4.43787
-3.91508
-3.39268
-2.87052
-2.34849
-1.82654
-1.30463
-0.782764
-0.260921
-29.8915
-28.936
-27.6534
-26.4916
-25.5146
-24.6773
-23.9212
-23.1971
-22.4651
-21.6918
-20.8495
-19.9214
-18.9131
-17.8567
-16.7775
-15.6914
-14.6102
-13.5506
-12.5409
-11.619
-10.796
-10.0609
-9.39427
-8.77693
-8.1934
-7.63229
-7.08571
-6.5484
-6.01692
-5.4891
-4.96355
-4.43941
-3.91614
-3.3934
-2.871
-2.34881
-1.82674
-1.30476
-0.782825
-0.260927
-29.6431
-28.7381
-27.5103
-26.3902
-25.44
-24.6173
-23.8668
-23.1427
-22.4078
-21.6318
-20.7904
-19.8693
-18.8738
-17.8321
-16.7676
-15.696
-14.63
-13.5861
-12.5904
-11.6761
-10.8533
-10.1131
-9.43865
-8.81286
-8.22145
-7.6536
-7.10156
-6.55998
-6.02527
-5.49504
-4.96773
-4.44232
-3.91815
-3.39478
-2.87193
-2.34943
-1.82714
-1.305
-0.782942
-0.260942
-29.2868
-28.4576
-27.3109
-26.2517
-25.3403
-24.5385
-23.7965
-23.0725
-22.3339
-21.5542
-20.7135
-19.8012
-18.8228
-17.8004
-16.755
-15.7022
-14.6559
-13.6326
-12.6557
-11.7511
-10.9283
-10.1813
-9.49666
-8.8599
-8.25826
-7.68162
-7.12242
-6.57525
-6.03628
-5.50288
-4.97326
-4.44618
-3.92081
-3.3966
-2.87316
-2.35024
-1.82767
-1.30531
-0.783098
-0.260961
-28.8462
-28.1168
-27.0746
-26.0926
-25.2295
-24.4536
-23.7221
-22.9989
-22.2563
-21.4728
-20.6329
-19.7297
-18.7687
-17.7666
-16.7416
-15.7094
-14.6843
-13.6829
-12.7252
-11.8309
-11.0084
-10.2545
-9.55927
-8.9109
-8.29831
-7.71218
-7.14523
-6.59196
-6.04833
-5.51147
-4.97931
-4.4504
-3.92373
-3.39859
-2.87451
-2.35114
-1.82824
-1.30566
-0.783266
-0.260981
-28.3595
-27.7487
-26.8284
-25.9347
-25.1253
-24.3775
-23.657
-22.9348
-22.1885
-21.4013
-20.5619
-19.6665
-18.7201
-17.736
-16.7297
-15.7165
-14.711
-13.7293
-12.7883
-11.9033
-11.0816
-10.3219
-9.61732
-8.95846
-8.33581
-7.74088
-7.16668
-6.60768
-6.05968
-5.51955
-4.98499
-4.45435
-3.92645
-3.40045
-2.87576
-2.35196
-1.82877
-1.30597
-0.783422
-0.261002
-27.8843
-27.3989
-26.6075
-25.8042
-25.0475
-24.3256
-23.6142
-22.8918
-22.1414
-21.3502
-20.5104
-19.62
-18.6838
-17.7129
-16.721
-15.7226
-14.7325
-13.7657
-12.8372
-11.9592
-11.1384
-10.3746
-9.66302
-8.99607
-8.36555
-7.76367
-7.18371
-6.62015
-6.06866
-5.52591
-4.98945
-4.45744
-3.92857
-3.40188
-2.87672
-2.35259
-1.82917
-1.30621
-0.783537
-0.26102
-27.4977
-27.1248
-26.4533
-25.7301
-25.016
-24.3117
-23.604
-22.8784
-22.1225
-21.3265
-20.4845
-19.5956
-18.6643
-17.7005
-16.7167
-15.7269
-14.7458
-13.7878
-12.8665
-11.9928
-11.1726
-10.4064
-9.69058
-9.01873
-8.3834
-7.77728
-7.1938
-6.62748
-6.07387
-5.52957
-4.99197
-4.45916
-3.92972
-3.40265
-2.87722
-2.35291
-1.82936
-1.30631
-0.783589
-0.261034
-27.2866
-26.9901
-26.4101
-25.7408
-25.0478
-24.346
-23.6327
-22.8992
-22.1357
-21.3336
-20.4874
-19.596
-18.6639
-17.7002
-16.717
-15.7283
-14.7487
-13.7925
-12.8729
-12.0001
-11.1799
-10.413
-9.69607
-9.02295
-8.38647
-7.77939
-7.19518
-6.62832
-6.07434
-5.5298
-4.99205
-4.45915
-3.92966
-3.40257
-2.87714
-2.35283
-1.82929
-1.30626
-0.783552
-0.261035
-27.3062
-27.0551
-26.522
-25.8616
-25.1548
-24.4329
-23.7015
-22.9546
-22.1817
-21.3725
-20.5201
-19.6224
-18.6835
-17.7124
-16.7217
-15.7257
-14.7392
-13.7772
-12.8533
-11.978
-11.1573
-10.3915
-9.67677
-9.00648
-8.37292
-7.76858
-7.18675
-6.62187
-6.06948
-5.52618
-4.98938
-4.4572
-3.92825
-3.40156
-2.87641
-2.35232
-1.82894
-1.30602
-0.783396
-0.260981
-28.0366
-27.682
-26.9529
-26.1382
-25.3537
-24.6233
-23.9345
-23.2628
-22.5792
-21.8492
-21.0323
-20.0911
-19.0256
-17.9195
-16.8078
-15.6965
-14.5818
-13.4666
-12.3866
-11.4363
-10.6258
-9.9228
-9.29115
-8.70383
-8.14326
-7.59861
-7.06341
-6.53378
-6.00742
-5.48297
-4.95962
-4.43691
-3.91456
-3.39243
-2.87041
-2.34846
-1.82656
-1.30468
-0.782818
-0.260976
-27.9456
-27.6051
-26.8927
-26.0921
-25.3171
-24.5916
-23.9036
-23.2297
-22.5421
-21.8083
-20.9908
-20.0544
-18.9989
-17.9032
-16.8009
-15.6982
-14.5928
-13.4889
-12.4203
-11.4762
-10.6654
-9.95773
-9.31974
-8.72614
-8.1601
-7.61106
-7.07245
-6.54026
-6.01201
-5.48618
-4.96186
-4.43845
-3.91562
-3.39314
-2.87089
-2.34878
-1.82676
-1.30479
-0.782875
-0.260979
-27.7691
-27.457
-26.7777
-26.0048
-25.2485
-24.5326
-23.8464
-23.1684
-22.4729
-21.7313
-20.9112
-19.9836
-18.9485
-17.8734
-16.7884
-15.7017
-14.614
-13.5319
-12.4865
-11.5535
-10.7407
-10.0234
-9.37315
-8.76771
-8.1915
-7.63427
-7.08934
-6.55238
-6.02062
-5.49224
-4.96608
-4.44138
-3.91763
-3.39451
-2.87181
-2.34938
-1.82714
-1.30503
-0.782986
-0.260987
-27.5201
-27.2507
-26.6199
-25.887
-25.1576
-24.4556
-23.7725
-23.0893
-22.3834
-21.6306
-20.8055
-19.8882
-18.8828
-17.835
-16.7724
-15.7058
-14.6407
-13.5879
-12.5758
-11.6565
-10.8397
-10.109
-9.44272
-8.82189
-8.2325
-7.66464
-7.11147
-6.56829
-6.03193
-5.50021
-4.97164
-4.44522
-3.92027
-3.3963
-2.87301
-2.35018
-1.82766
-1.30533
-0.783131
-0.260997
-27.2213
-27.0071
-26.4375
-25.7545
-25.0583
-24.3736
-23.695
-23.0068
-22.2904
-21.5267
-20.6973
-19.7908
-18.8134
-17.7939
-16.7551
-15.7107
-14.6704
-13.648
-12.6679
-11.763
-10.9431
-10.1995
-9.51681
-8.87998
-8.27668
-7.69749
-7.13545
-6.58556
-6.04421
-5.50885
-4.97767
-4.44939
-3.92313
-3.39825
-2.87432
-2.35104
-1.82821
-1.30566
-0.783286
-0.261007
-26.9095
-26.757
-26.2557
-25.6277
-24.9676
-24.3017
-23.6282
-22.936
-22.2106
-21.4378
-20.6055
-19.7083
-18.7522
-17.7565
-16.7395
-15.716
-14.6986
-13.7024
-12.7474
-11.8551
-11.034
-10.2804
-9.58391
-8.93311
-8.31734
-7.72782
-7.15765
-6.60155
-6.05558
-5.51684
-4.98323
-4.45323
-3.92575
-3.40002
-2.8755
-2.35182
-1.8287
-1.30595
-0.783423
-0.261015
-26.6376
-26.5404
-26.1053
-25.5307
-24.9046
-24.2553
-23.586
-22.8897
-22.1566
-21.3765
-20.5418
-19.6503
-18.708
-17.7287
-16.728
-15.7206
-14.7206
-13.7434
-12.8055
-11.9224
-11.1013
-10.341
-9.63483
-8.97371
-8.34852
-7.75111
-7.17466
-6.61377
-6.06423
-5.52289
-4.98741
-4.45609
-3.92768
-3.40132
-2.87636
-2.35237
-1.82904
-1.30615
-0.783515
-0.26102
-26.4695
-26.4024
-26.0202
-25.4889
-24.8881
-24.2489
-23.5795
-22.8777
-22.1371
-21.3502
-20.5121
-19.622
-18.6857
-17.7144
-16.7221
-15.7234
-14.733
-13.766
-12.8374
-11.9594
-11.1385
-10.3747
-9.66309
-8.99612
-8.36559
-7.7637
-7.18373
-6.62017
-6.06867
-5.52592
-4.98945
-4.45744
-3.92857
-3.40189
-2.87672
-2.35259
-1.82917
-1.30621
-0.783537
-0.261021
-26.4561
-26.3817
-26.0325
-25.5267
-24.935
-24.2934
-23.6163
-22.9055
-22.1564
-21.3625
-20.5191
-19.6258
-18.6878
-17.7156
-16.7225
-15.7232
-14.733
-13.7672
-12.8399
-11.9628
-11.1418
-10.3772
-9.66453
-8.99666
-8.36546
-7.76317
-7.183
-6.61938
-6.06791
-5.52523
-4.98886
-4.45695
-3.92816
-3.40156
-2.87646
-2.35239
-1.82902
-1.3061
-0.783466
-0.261007
-26.5772
-26.4961
-26.1705
-25.6667
-25.0589
-24.3958
-23.6997
-22.9749
-22.216
-21.4147
-20.5642
-19.6627
-18.7153
-17.7326
-16.7287
-15.7187
-14.7186
-13.7441
-12.8105
-11.9299
-11.1084
-10.3458
-9.63689
-8.97343
-8.34667
-7.74842
-7.17167
-6.61083
-6.06155
-5.52055
-4.98545
-4.45447
-3.92639
-3.40029
-2.87557
-2.35177
-1.82858
-1.3058
-0.783274
-0.260936
-26.9685
-26.7798
-26.3249
-25.7475
-25.135
-24.526
-23.9306
-23.3429
-22.7454
-22.1032
-21.3525
-20.3971
-19.1866
-17.9921
-16.8398
-15.7054
-14.5531
-13.3452
-12.0975
-11.1064
-10.3401
-9.70589
-9.13773
-8.59962
-8.07415
-7.55347
-7.03422
-6.51503
-5.99543
-5.47534
-4.95479
-4.43386
-3.91265
-3.39124
-2.86969
-2.34803
-1.82631
-1.30456
-0.782787
-0.261017
-26.8955
-26.7185
-26.2754
-25.7076
-25.101
-24.4939
-23.8963
-23.3027
-22.6965
-22.0458
-21.2917
-20.3441
-19.151
-17.9719
-16.8315
-15.7067
-14.5649
-13.3737
-12.1465
-11.166
-10.3976
-9.75431
-9.17542
-8.62765
-8.09446
-7.56795
-7.04442
-6.52215
-6.00038
-5.47875
-4.95712
-4.43545
-3.91373
-3.39196
-2.87016
-2.34834
-1.82651
-1.30467
-0.782842
-0.261017
-26.7547
-26.6014
-26.1817
-25.6325
-25.0376
-24.4343
-23.8327
-23.2276
-22.6039
-21.9336
-21.1679
-20.2328
-19.0815
-17.9348
-16.8163
-15.709
-14.5883
-13.4305
-12.2503
-11.2876
-10.5101
-9.84653
-9.24615
-8.67993
-8.13226
-7.59489
-7.06343
-6.53547
-6.00964
-5.48515
-4.96152
-4.43846
-3.91577
-3.39334
-2.87108
-2.34894
-1.82689
-1.3049
-0.782948
-0.26102
-26.5588
-26.441
-26.055
-25.5327
-24.9546
-24.3572
-23.7506
-23.1304
-22.4826
-21.7831
-20.9942
-20.0681
-18.991
-17.8895
-16.7965
-15.7083
-14.6122
-13.5007
-12.4033
-11.4582
-10.6614
-9.96772
-9.33828
-8.74787
-8.18142
-7.62999
-7.08825
-6.55287
-6.02175
-5.49353
-4.96729
-4.4424
-3.91845
-3.39514
-2.87228
-2.34973
-1.82739
-1.30519
-0.783084
-0.261023
-26.3299
-26.2571
-25.9128
-25.4232
-24.8658
-24.2763
-23.6654
-23.03
-22.3583
-21.6314
-20.8236
-19.9102
-18.894
-17.8386
-16.7745
-15.7091
-14.642
-13.5789
-12.5503
-11.626
-10.8147
-10.0931
-9.43502
-8.81994
-8.23392
-7.66766
-7.11494
-6.57162
-6.03481
-5.50256
-4.97349
-4.44663
-3.92132
-3.39707
-2.87357
-2.35057
-1.82792
-1.3055
-0.783227
-0.261024
-26.1029
-26.0782
-25.7782
-25.3235
-24.788
-24.2073
-23.5933
-22.945
-22.2539
-21.5065
-20.6875
-19.786
-18.8094
-17.7906
-16.7538
-15.7118
-14.673
-13.6497
-12.6671
-11.7616
-10.9431
-10.2016
-9.52065
-8.88472
-8.28156
-7.70201
-7.13935
-6.58876
-6.04674
-5.51079
-4.97912
-4.45046
-3.9239
-3.3988
-2.87471
-2.35131
-1.82839
-1.30577
-0.783349
-0.261021
-25.9266
-25.9396
-25.6784
-25.2552
-24.7393
-24.166
-23.5492
-22.8905
-22.1847
-21.4231
-20.5972
-19.7034
-18.7492
-17.7544
-16.7381
-15.7148
-14.6977
-13.7017
-12.7469
-11.8547
-11.0338
-10.2802
-9.58379
-8.93302
-8.31727
-7.72777
-7.15761
-6.60152
-6.05556
-5.51683
-4.98322
-4.45321
-3.92574
-3.40001
-2.8755
-2.35181
-1.82869
-1.30594
-0.783422
-0.261015
-25.8548
-25.8769
-25.6407
-25.2403
-24.7373
-24.1666
-23.5449
-22.8766
-22.1593
-21.3873
-20.5558
-19.664
-18.7192
-17.7357
-16.7295
-15.7162
-14.7108
-13.729
-12.7881
-11.9031
-11.0814
-10.3218
-9.61727
-8.95843
-8.33578
-7.74087
-7.16667
-6.60767
-6.05968
-5.51954
-4.98498
-4.45434
-3.92644
-3.40044
-2.87575
-2.35196
-1.82876
-1.30597
-0.78342
-0.261003
-25.9172
-25.9127
-25.6876
-25.2983
-24.7967
-24.2197
-23.588
-22.9091
-22.1819
-21.4014
-20.5635
-19.668
-18.7216
-17.7369
-16.7292
-15.7144
-14.7087
-13.7283
-12.7897
-11.9059
-11.0839
-10.323
-9.617
-8.95707
-8.33383
-7.73872
-7.16459
-6.60581
-6.05809
-5.51824
-4.98393
-4.45352
-3.9258
-3.39995
-2.87538
-2.35168
-1.82856
-1.30582
-0.783324
-0.260975
-26.0617
-26.0425
-25.8349
-25.4463
-24.9291
-24.3313
-23.6814
-22.9894
-22.2534
-21.4661
-20.6205
-19.7154
-18.757
-17.7586
-16.7367
-15.7078
-14.6887
-13.6969
-12.7497
-11.8615
-11.0392
-10.2816
-9.58103
-8.92738
-8.31023
-7.7205
-7.15083
-6.59559
-6.05059
-5.51278
-4.98
-4.4507
-3.92379
-3.39853
-2.87438
-2.35098
-1.82808
-1.30549
-0.783112
-0.26089
-26.3793
-26.2072
-25.8717
-25.4344
-24.9486
-24.4489
-23.9546
-23.475
-23.0082
-22.5278
-21.9424
-21.0117
-19.3634
-18.0385
-16.8586
-15.7254
-14.5586
-13.2277
-11.5013
-10.4946
-9.86746
-9.37601
-8.91682
-8.45431
-7.97935
-7.49188
-6.99428
-6.48917
-5.97871
-5.46453
-4.94781
-4.42937
-3.90977
-3.3894
-2.86852
-2.3473
-1.82588
-1.30432
-0.782696
-0.261045
-26.315
-26.1549
-25.8292
-25.3988
-24.9161
-24.4152
-23.9149
-23.4241
-22.9415
-22.4446
-21.852
-20.938
-19.3206
-18.0158
-16.8507
-15.7275
-14.5701
-13.261
-11.5715
-10.5856
-9.95326
-9.44485
-8.96772
-8.49042
-8.00444
-7.50913
-7.00607
-6.4972
-5.98416
-5.46822
-4.9503
-4.43104
-3.91089
-3.39014
-2.86901
-2.34762
-1.82607
-1.30444
-0.782748
-0.261043
-26.1916
-26.0557
-25.7492
-25.3321
-24.8556
-24.3526
-23.8409
-23.3278
-22.8114
-22.2725
-21.6469
-20.7524
-19.2289
-17.9744
-16.8356
-15.73
-14.5955
-13.3351
-11.7487
-10.7912
-10.1302
-9.5792
-9.06423
-8.55797
-8.05114
-7.5412
-7.02801
-6.51216
-5.99434
-5.47513
-4.95497
-4.43419
-3.913
-3.39155
-2.86993
-2.34822
-1.82645
-1.30466
-0.78285
-0.261043
-26.0215
-25.9215
-25.6428
-25.2447
-24.7773
-24.2721
-23.7455
-23.2023
-22.6372
-22.0281
-21.3192
-20.3936
-19.1305
-17.9405
-16.8171
-15.7158
-14.592
-13.3908
-12.0865
-11.1171
-10.3804
-9.75913
-9.19058
-8.64575
-8.11174
-7.58287
-7.05656
-6.53166
-6.00762
-5.48414
-4.96107
-4.4383
-3.91575
-3.39338
-2.87115
-2.34901
-1.82695
-1.30494
-0.78298
-0.26104
-25.8262
-25.7715
-25.5265
-25.1514
-24.6952
-24.1888
-23.6472
-23.0739
-22.4619
-21.7913
-21.0231
-20.1009
-19.0029
-17.8897
-16.7944
-15.7072
-14.6088
-13.484
-12.3604
-11.4106
-10.6229
-9.941
-9.32143
-8.738
-8.17603
-7.62733
-7.08713
-6.55257
-6.02186
-5.4938
-4.96759
-4.44268
-3.91869
-3.39533
-2.87243
-2.34984
-1.82747
-1.30525
-0.783114
-0.261034
-25.6392
-25.6321
-25.4219
-25.0704
-24.6262
-24.1195
-23.5652
-22.9668
-22.3188
-21.6066
-20.8077
-19.8994
-18.8861
-17.8326
-16.7699
-15.7055
-14.6393
-13.5769
-12.5489
-11.6251
-10.814
-10.0927
-9.4347
-8.81971
-8.23375
-7.66753
-7.11485
-6.57154
-6.03476