# vtk DataFile Version 2.0
I need something to put here
ASCII

DATASET STRUCTURED_GRID
DIMENSIONS 41 21 21
POINTS 18081 float
0.000000 0.000000 0.000000
0.100000 0.000000 0.000000
0.200000 0.000000 0.000000
0.300000 0.000000 0.000000
0.400000 0.000000 0.000000
0.500000 0.000000 0.000000
0.600000 0.000000 0.000000
0.700000 0.000000 0.000000
0.800000 0.000000 0.000000
0.900000 0.000000 0.000000
1.000000 0.000000 0.000000
1.100000 0.000000 0.000000
1.200000 0.000000 0.000000
1.300000 0.000000 0.000000
1.400000 0.000000 0.000000
1.500000 0.000000 0.000000
1.600000 0.000000 0.000000
1.700000 0.000000 0.000000
1.800000 0.000000 0.000000
1.900000 0.000000 0.000000
2.000000 0.000000 0.000000
2.100000 0.000000 0.000000
2.200000 0.000000 0.000000
2.300000 0.000000 0.000000
2.400000 0.000000 0.000000
2.500000 0.000000 0.000000
2.600000 0.000000 0.000000
2.700000 0.000000 0.000000
2.800000 0.000000 0.000000
2.900000 0.000000 0.000000
3.000000 0.000000 0.000000
3.100000 0.000000 0.000000
3.200000 0.000000 0.000000
3.300000 0.000000 0.000000
3.400000 0.000000 0.000000
3.500000 0.000000 0.000000
3.600000 0.000000 0.000000
3.700000 0.000000 0.000000
3.800000 0.000000 0.000000
3.900000 0.000000 0.000000
4.000000 0.000000 0.000000
0.000000 0.100000 0.000000
0.100000 0.100000 0.000000
0.200000 0.100000 0.000000
0.300000 0.100000 0.000000
0.400000 0.100000 0.000000
0.500000 0.100000 0.000000
0.600000 0.100000 0.000000
0.700000 0.100000 0.000000
0.800000 0.100000 0.000000
0.900000 0.100000 0.000000
1.000000 0.100000 0.000000
1.100000 0.100000 0.000000
1.200000 0.100000 0.000000
1.300000 0.100000 0.000000
1.400000 0.100000 0.000000
1.500000 0.100000 0.000000
1.600000 0.100000 0.000000
1.700000 0.100000 0.000000
1.800000 0.100000 0.000000
1.900000 0.100000 0.000000
2.000000 0.100000 0.000000
2.100000 0.100000 0.000000
2.200000 0.100000 0.000000
2.300000 0.100000 0.000000
2.400000 0.100000 0.000000
2.500000 0.100000 0.000000
2.600000 0.100000 0.000000
2.700000 0.100000 0.000000
2.800000 0.100000 0.000000
2.900000 0.100000 0.000000
3.000000 0.100000 0.000000
3.100000 0.100000 0.000000
3.200000 0.100000 0.000000
3.300000 0.100000 0.000000
3.400000 0.100000 0.000000
3.500000 0.100000 0.000000
3.600000 0.100000 0.000000
3.700000 0.100000 0.000000
3.800000 0.100000 0.000000
3.900000 0.100000 0.000000
4.000000 0.100000 0.000000
0.000000 0.200000 0.000000
0.100000 0.200000 0.000000
0.200000 0.200000 0.000000
0.300000 0.200000 0.000000
0.400000 0.200000 0.000000
0.500000 0.200000 0.000000
0.600000 0.200000 0.000000
0.700000 0.200000 0.000000
0.800000 0.200000 0.000000
0.900000 0.200000 0.000000
1.000000 0.200000 0.000000
1.100000 0.200000 0.000000
1.200000 0.200000 0.000000
1.300000 0.200000 0.000000
1.400000 0.200000 0.000000
1.500000 0.200000 0.000000
1.600000 0.200000 0.000000
1.700000 0.200000 0.000000
1.800000 0.200000 0.000000
1.900000 0.200000 0.000000
2.000000 0.200000 0.000000
2.100000 0.200000 0.000000
2.200000 0.200000 0.000000
2.300000 0.200000 0.000000
2.400000 0.200000 0.000000
2.500000 0.200000 0.000000
2.600000 0.200000 0.000000
2.700000 0.200000 0.000000
2.800000 0.200000 0.000000
2.900000 0.200000 0.000000
3.000000 0.200000 0.000000
3.100000 0.200000 0.000000
3.200000 0.200000 0.000000
3.300000 0.200000 0.000000
3.400000 0.200000 0.000000
3.500000 0.200000 0.000000
3.600000 0.200000 0.000000
3.700000 0.200000 0.000000
3.800000 0.200000 0.000000
3.900000 0.200000 0.000000
4.000000 0.200000 0.000000
0.000000 0.300000 0.000000
0.100000 0.300000 0.000000
0.200000 0.300000 0.000000
0.300000 0.300000 0.000000
0.400000 0.300000 0.000000
0.500000 0.300000 0.000000
0.600000 0.300000 0.000000
0.700000 0.300000 0.000000
0.800000 0.300000 0.000000
0.900000 0.300000 0.000000
1.000000 0.300000 0.000000
1.100000 0.300000 0.000000
1.200000 0.300000 0.000000
1.300000 0.300000 0.000000
1.400000 0.300000 0.000000
1.500000 0.300000 0.000000
1.600000 0.300000 0.000000
1.700000 0.300000 0.000000
1.800000 0.300000 0.000000
1.900000 0.300000 0.000000
2.000000 0.300000 0.000000
2.100000 0.300000 0.000000
2.200000 0.300000 0.000000
2.300000 0.300000 0.000000
2.400000 0.300000 0.000000
2.500000 0.300000 0.000000
2.600000 0.300000 0.000000
2.700000 0.300000 0.000000
2.800000 0.300000 0.000000
2.900000 0.300000 0.000000
3.000000 0.300000 0.000000
3.100000 0.300000 0.000000
3.200000 0.300000 0.000000
3.300000 0.300000 0.000000
3.400000 0.300000 0.000000
3.500000 0.300000 0.000000
3.600000 0.300000 0.000000
3.700000 0.300000 0.000000
3.800000 0.300000 0.000000
3.900000 0.300000 0.000000
4.000000 0.300000 0.000000
0.000000 0.400000 0.000000
0.100000 0.400000 0.000000
0.200000 0.400000 0.000000
0.300000 0.400000 0.000000
0.400000 0.400000 0.000000
0.500000 0.400000 0.000000
0.600000 0.400000 0.000000
0.700000 0.400000 0.000000
0.800000 0.400000 0.000000
0.900000 0.400000 0.000000
1.000000 0.400000 0.000000
1.100000 0.400000 0.000000
1.200000 0.400000 0.000000
1.300000 0.400000 0.000000
1.400000 0.400000 0.000000
1.500000 0.400000 0.000000
1.600000 0.400000 0.000000
1.700000 0.400000 0.000000
1.800000 0.400000 0.000000
1.900000 0.400000 0.000000
2.000000 0.400000 0.000000
2.100000 0.400000 0.000000
2.200000 0.400000 0.000000
2.300000 0.400000 0.000000
2.400000 0.400000 0.000000
2.500000 0.400000 0.000000
2.600000 0.400000 0.000000
2.700000 0.400000 0.000000
2.800000 0.400000 0.000000
2.900000 0.400000 0.000000
3.000000 0.400000 0.000000
3.100000 0.400000 0.000000
3.200000 0.400000 0.000000
3.300000 0.400000 0.000000
3.400000 0.400000 0.000000
3.500000 0.400000 0.000000
3.600000 0.400000 0.000000
3.700000 0.400000 0.000000
3.800000 0.400000 0.000000
3.900000 0.400000 0.000000
4.000000 0.400000 0.000000
0.000000 0.500000 0.000000
0.100000 0.500000 0.000000
0.200000 0.500000 0.000000
0.300000 0.500000 0.000000
0.400000 0.500000 0.000000
0.500000 0.500000 0.000000
0.600000 0.500000 0.000000
0.700000 0.500000 0.000000
0.800000 0.500000 0.000000
0.900000 0.500000 0.000000
1.000000 0.500000 0.000000
1.100000 0.500000 0.000000
1.200000 0.500000 0.000000
1.300000 0.500000 0.000000
1.400000 0.500000 0.000000
1.500000 0.500000 0.000000
1.600000 0.500000 0.000000
1.700000 0.500000 0.000000
1.800000 0.500000 0.000000
1.900000 0.500000 0.000000
2.000000 0.500000 0.000000
2.100000 0.500000 0.000000
2.200000 0.500000 0.000000
2.300000 0.500000 0.000000
2.400000 0.500000 0.000000
2.500000 0.500000 0.000000
2.600000 0.500000 0.000000
2.700000 0.500000 0.000000
2.800000 0.500000 0.000000
2.900000 0.500000 0.000000
3.000000 0.500000 0.000000
3.100000 0.500000 0.000000
3.200000 0.500000 0.000000
3.300000 0.500000 0.000000
3.400000 0.500000 0.000000
3.500000 0.500000 0.000000
3.600000 0.500000 0.000000
3.700000 0.500000 0.000000
3.800000 0.500000 0.000000
3.900000 0.500000 0.000000
4.000000 0.500000 0.000000
0.000000 0.600000 0.000000
0.100000 0.600000 0.000000
0.200000 0.600000 0.000000
0.300000 0.600000 0.000000
0.400000 0.600000 0.000000
0.500000 0.600000 0.000000
0.600000 0.600000 0.000000
0.700000 0.600000 0.000000
0.800000 0.600000 0.000000
0.900000 0.600000 0.000000
1.000000 0.600000 0.000000
1.100000 0.600000 0.000000
1.200000 0.600000 0.000000
1.300000 0.600000 0.000000
1.400000 0.600000 0.000000
1.500000 0.600000 0.000000
1.600000 0.600000 0.000000
1.700000 0.600000 0.000000
1.800000 0.600000 0.000000
1.900000 0.600000 0.000000
2.000000 0.600000 0.000000
2.100000 0.600000 0.000000
2.200000 0.600000 0.000000
2.300000 0.600000 0.000000
2.400000 0.600000 0.000000
2.500000 0.600000 0.000000
2.600000 0.600000 0.000000
2.700000 0.600000 0.000000
2.800000 0.600000 0.000000
2.900000 0.600000 0.000000
3.000000 0.600000 0.000000
3.100000 0.600000 0.000000
3.200000 0.600000 0.000000
3.300000 0.600000 0.000000
3.400000 0.600000 0.000000
3.500000 0.600000 0.000000
3.600000 0.600000 0.000000
3.700000 0.600000 0.000000
3.800000 0.600000 0.000000
3.900000 0.600000 0.000000
4.000000 0.600000 0.000000
0.000000 0.700000 0.000000
0.100000 0.700000 0.000000
0.200000 0.700000 0.000000
0.300000 0.700000 0.000000
0.400000 0.700000 0.000000
0.500000 0.700000 0.000000
0.600000 0.700000 0.000000
0.700000 0.700000 0.000000
0.800000 0.700000 0.000000
0.900000 0.700000 0.000000
1.000000 0.700000 0.000000
1.100000 0.700000 0.000000
1.200000 0.700000 0.000000
1.300000 0.700000 0.000000
1.400000 0.700000 0.000000
1.500000 0.700000 0.000000
1.600000 0.700000 0.000000
1.700000 0.700000 0.000000
1.800000 0.700000 0.000000
1.900000 0.700000 0.000000
2.000000 0.700000 0.000000
2.100000 0.700000 0.000000
2.200000 0.700000 0.000000
2.300000 0.700000 0.000000
2.400000 0.700000 0.000000
2.500000 0.700000 0.000000
2.600000 0.700000 0.000000
2.700000 0.700000 0.000000
2.800000 0.700000 0.000000
2.900000 0.700000 0.000000
3.000000 0.700000 0.000000
3.100000 0.700000 0.000000
3.200000 0.700000 0.000000
3.300000 0.700000 0.000000
3.400000 0.700000 0.000000
3.500000 0.700000 0.000000
3.600000 0.700000 0.000000
3.700000 0.700000 0.000000
3.800000 0.700000 0.000000
3.900000 0.700000 0.000000
4.000000 0.700000 0.000000
0.000000 0.800000 0.000000
0.100000 0.800000 0.000000
0.200000 0.800000 0.000000
0.300000 0.800000 0.000000
0.400000 0.800000 0.000000
0.500000 0.800000 0.000000
0.600000 0.800000 0.000000
0.700000 0.800000 0.000000
0.800000 0.800000 0.000000
0.900000 0.800000 0.000000
1.000000 0.800000 0.000000
1.100000 0.800000 0.000000
1.200000 0.800000 0.000000
1.300000 0.800000 0.000000
1.400000 0.800000 0.000000
1.500000 0.800000 0.000000
1.600000 0.800000 0.000000
1.700000 0.800000 0.000000
1.800000 0.800000 0.000000
1.900000 0.800000 0.000000
2.000000 0.800000 0.000000
2.100000 0.800000 0.000000
2.200000 0.800000 0.000000
2.300000 0.800000 0.000000
2.400000 0.800000 0.000000
2.500000 0.800000 0.000000
2.600000 0.800000 0.000000
2.700000 0.800000 0.000000
2.800000 0.800000 0.000000
2.900000 0.800000 0.000000
3.000000 0.800000 0.000000
3.100000 0.800000 0.000000
3.200000 0.800000 0.000000
3.300000 0.800000 0.000000
3.400000 0.800000 0.000000
3.500000 0.800000 0.000000
3.600000 0.800000 0.000000
[...]
CELL_DATA 16000
SCALARS pressure float 1
LOOKUP_TABLE default
34.4131
34.2362
33.8991
33.4356
32.8715
32.2233
31.4989
30.7
29.8234
28.8635
27.815
26.6762
25.4513
24.1528
22.8014
21.4248
20.0532
18.7157
17.4353
16.2274
15.0986
14.0484
13.0708
12.1565
11.2949
10.4756
9.68892
8.92684
8.18272
7.45143
6.72908
6.01279
5.30055
4.5909
3.88289
3.17588
2.46946
1.76341
1.05766
0.352279
34.4688
34.2663
33.9153
33.4441
32.8759
32.2255
31.5003
30.7013
29.8251
28.8658
27.818
26.6795
25.4543
24.1549
22.8022
21.4239
20.051
18.7125
17.4318
16.2241
15.0959
14.0465
13.0697
12.156
11.295
10.476
9.68953
8.92752
8.1834
7.45206
6.72962
6.01325
5.30092
4.5912
3.88312
3.17605
2.46959
1.76349
1.05769
0.35223
34.589
34.3499
33.9747
33.4881
32.9109
32.2563
31.5303
30.733
29.8597
28.9034
27.857
26.7171
25.4866
24.1776
22.8122
21.4198
20.0337
18.6851
17.3982
16.1883
15.0614
14.0154
13.0433
12.1348
11.2785
10.4636
9.68058
8.92124
8.17913
7.44924
6.72782
6.01215
5.30028
4.59086
3.88296
3.17599
2.46957
1.76347
1.05763
0.352129
34.752
34.4707
34.0655
33.5592
32.9706
32.3112
31.5857
30.7924
29.925
28.9742
27.9304
26.7873
25.5463
24.2192
22.8297
21.4108
20.0002
18.6326
17.3343
16.1206
14.9959
13.9566
12.9933
12.0942
11.2468
10.4397
9.6631
8.90879
8.17049
7.4434
6.72398
6.0097
5.29877
4.58996
3.88246
3.17573
2.46943
1.76339
1.05755
0.35204
34.9367
34.6132
34.1765
33.6492
33.0488
32.3854
31.6621
30.8758
30.0175
29.075
28.035
26.8877
25.6315
24.2779
22.8531
21.3957
19.9497
18.5552
17.2411
16.0226
14.9021
13.8727
12.9223
12.0368
11.2021
10.4061
9.63844
8.89121
8.15826
7.4351
6.71848
6.00615
5.29655
4.58862
3.88169
3.1753
2.4692
1.76326
1.05746
0.351982
35.1237
34.762
34.2957
33.7484
33.1373
32.4714
31.7526
30.9758
30.1296
29.1981
28.1635
27.0114
25.7365
24.3498
22.8808
21.3749
19.8848
18.4573
17.1245
15.9011
14.7866
13.7702
12.8362
11.9675
11.1484
10.3658
9.60904
8.87029
8.14372
7.42522
6.71193
6.00192
5.29389
4.587
3.88074
3.17478
2.46893
1.76312
1.05739
0.35196
35.2961
34.9023
34.4104
33.8461
33.2263
32.5598
31.8471
31.0816
30.2494
29.3308
28.3031
27.1465
25.8517
24.4286
22.9103
21.3503
19.8114
18.3481
16.9958
15.7683
14.6615
13.6602
12.7444
11.8941
11.0919
10.3235
9.5783
8.84847
8.12859
7.41496
6.70513
5.99752
5.29111
4.58531
3.87975
3.17422
2.46864
1.76298
1.05734
0.351965
35.4393
35.0207
34.5089
33.9313
33.3054
32.6395
31.9336
31.1796
30.3614
29.4559
28.4357
27.2758
25.9625
24.5044
22.9382
21.3255
19.7394
18.2421
16.872
15.6418
14.5434
13.557
12.6589
11.8262
11.0398
10.2848
9.55024
8.82862
8.11486
7.40566
6.69898
5.99354
5.28861
4.58378
3.87885
3.17373
2.46838
1.76287
1.05731
0.351985
35.5416
35.1063
34.5809
33.9943
33.3646
32.6999
31.9998
31.2553
30.4486
29.5541
28.5406
27.3787
26.0512
24.5652
22.9604
21.3051
19.6811
18.1568
16.7733
15.5416
14.4505
13.4765
12.5926
11.7739
10.9999
10.2552
9.52883
8.81351
8.10442
7.39861
6.69431
5.99052
5.28671
4.58263
3.87818
3.17335
2.46819
1.76279
1.05729
0.352008
35.5949
35.1511
34.6189
34.0279
33.3963
32.7325
32.0358
31.2967
30.4966
29.6083
28.5988
27.4361
26.1008
24.5993
22.9728
21.2935
19.6482
18.1091
16.7183
15.4861
14.3993
13.4323
12.5563
11.7453
10.9781
10.2391
9.51726
8.80536
8.0988
7.39482
6.69181
5.98891
5.2857
4.58201
3.87781
3.17315
2.46809
1.76275
1.05729
0.352022
35.595
35.1512
34.619
34.028
33.3965
32.7327
32.0359
31.2968
30.4967
29.6085
28.5989
27.4362
26.1009
24.5994
22.9728
21.2936
19.6483
18.1092
16.7184
15.4862
14.3994
13.4324
12.5564
11.7454
10.9782
10.2392
9.5173
8.80539
8.09883
7.39484
6.69182
5.98892
5.2857
4.58202
3.87782
3.17315
2.46809
1.76275
1.05729
0.352021
35.5419
35.1066
34.5812
33.9947
33.3649
32.7003
32.0002
31.2557
30.4491
29.5545
28.541
27.379
26.0514
24.5654
22.9605
21.3053
19.6813
18.1571
16.7736
15.5419
14.4508
13.4767
12.5928
11.7741
11
10.2553
9.52894
8.8136
8.10449
7.39867
6.69435
5.99055
5.28674
4.58265
3.87819
3.17336
2.4682
1.76279
1.05729
0.352004
35.4398
35.0213
34.5094
33.9318
33.3059
32.6401
31.9342
31.1803
30.3621
29.4566
28.4364
27.2764
25.963
24.5047
22.9385
21.3259
19.7398
18.2425
16.8725
15.6422
14.5438
13.5574
12.6592
11.8265
11.0401
10.285
9.55041
8.82876
8.11497
7.40575
6.69904
5.99359
5.28865
4.58381
3.87887
3.17374
2.46839
1.76287
1.05731
0.351979
35.2968
34.903
34.4112
33.8468
33.2271
32.5606
31.848
31.0826
30.2504
29.3318
28.3041
27.1474
25.8525
24.4292
22.9108
21.3508
19.8119
18.3485
16.9963
15.7688
14.662
13.6606
12.7448
11.8945
11.0922
10.3238
9.57851
8.84865
8.12873
7.41507
6.70522
5.99758
5.29116
4.58535
3.87977
3.17424
2.46865
1.76299
1.05734
0.351957
35.1245
34.7629
34.2965
33.7493
33.1382
32.4724
31.7537
30.9769
30.1308
29.1993
28.1648
27.0125
25.7375
24.3507
22.8815
21.3755
19.8853
18.4578
17.125
15.9016
14.7871
13.7707
12.8366
11.9679
11.1488
10.3661
9.60928
8.87049
8.14388
7.42535
6.71203
6.00199
5.29394
4.58704
3.88077
3.17479
2.46893
1.76312
1.05739
0.35195
34.9376
34.6142
34.1775
33.6502
33.0498
32.3865
31.6633
30.877
30.0189
29.0764
28.0364
26.889
25.6326
24.2789
22.854
21.3965
19.9504
18.5559
17.2417
16.0232
14.9026
13.8732
12.9228
12.0372
11.2025
10.4064
9.6387
8.89143
8.15844
7.43524
6.71859
6.00623
5.29661
4.58866
3.88171
3.17532
2.46921
1.76326
1.05746
0.351972
34.7531
34.4717
34.0665
33.5603
32.9717
32.3124
31.5869
30.7938
29.9265
28.9757
27.9319
26.7888
25.5477
24.2204
22.8307
21.4117
20.001
18.6333
17.3349
16.1211
14.9965
13.9571
12.9938
12.0946
11.2472
10.44
9.66336
8.909
8.17066
7.44354
6.72409
6.00978
5.29883
4.59
3.88249
3.17574
2.46944
1.76339
1.05754
0.35203
34.5901
34.351
33.9758
33.4892
32.9121
32.2575
31.5316
30.7344
29.8612
28.9049
27.8586
26.7186
25.488
24.1789
22.8133
21.4208
20.0346
18.6858
17.3988
16.1889
15.0619
14.0159
13.0438
12.1351
11.2788
10.4639
9.68083
8.92145
8.17929
7.44937
6.72793
6.01223
5.30034
4.59089
3.88299
3.17601
2.46957
1.76347
1.05763
0.35212
34.4698
34.2674
33.9164
33.4453
32.877
32.2267
31.5016
30.7027
29.8266
28.8673
27.8195
26.681
25.4558
24.1562
22.8034
21.4249
20.0518
18.7132
17.4324
16.2246
15.0964
14.047
13.0701
12.1564
11.2953
10.4763
9.68977
8.92772
8.18356
7.45218
6.72972
6.01332
5.30097
4.59123
3.88314
3.17606
2.46959
1.76349
1.05768
0.352223
34.4142
34.2372
33.9002
33.4367
32.8726
32.2245
31.5002
30.7014
29.8249
28.865
27.8166
26.6777
25.4527
24.1541
22.8026
21.4257
20.0541
18.7164
17.436
16.2279
15.0991
14.0489
13.0712
12.1569
11.2952
10.4758
9.68915
8.92702
8.18287
7.45155
6.72916
6.01286
5.30059
4.59093
3.88291
3.17588
2.46946
1.7634
1.05765
0.352273
34.4688
34.2663
33.9153
33.4441
32.8759
32.2255
31.5003
30.7013
29.8251
28.8658
27.818
26.6794
25.4543
24.1549
22.8022
21.4239
20.051
18.7125
17.4318
16.2241
15.0959
14.0465
13.0697
12.1561
11.295
10.476
9.68953
8.92753
8.18341
7.45206
6.72962
6.01326
5.30092
4.5912
3.88313
3.17606
2.46959
1.76349
1.05769
0.35223
34.5125
34.2717
33.9019
33.422
32.8496
32.1966
31.4691
30.6679
29.7897
28.8293
27.7819
26.6461
25.4263
24.1348
22.7918
21.4242
20.0616
18.7319
17.4577
16.2538
15.1268
14.0765
13.0972
12.1802
11.3155
10.4928
9.70294
8.93798
8.19139
7.45804
6.73403
6.01645
5.3032
4.59281
3.88425
3.17684
2.47013
1.76388
1.05795
0.352306
34.6288
34.3419
33.9433
33.446
32.8633
32.2047
31.4747
30.6729
29.7953
28.8361
27.7899
26.6543
25.4335
24.1394
22.7928
21.4211
20.0549
18.723
17.448
16.2447
15.1193
14.0709
13.0937
12.1784
11.315
10.4933
9.70405
8.93937
8.19285
7.45944
6.73528
6.01752
5.30409
4.59353
3.88481
3.17727
2.47046
1.76411
1.05808
0.352287
34.7949
34.4563
34.0233
33.5038
32.9079
32.2426
31.5107
30.7103
29.8359
28.88
27.8352
26.6977
25.47
24.1641
22.8019
21.4131
20.0314
18.6878
17.4063
16.2013
15.0782
14.0347
13.0635
12.1546
11.297
10.4801
9.69482
8.93315
8.18884
7.45697
6.73387
6.01679
5.30379
4.59347
3.88489
3.17741
2.4706
1.76422
1.05813
0.352269
34.9865
34.596
34.1274
33.5844
32.9746
32.3029
31.5704
30.7736
29.9049
28.9543
27.9117
26.7704
25.531
24.2052
22.8168
21.3996
19.992
18.6291
17.3366
16.1286
15.0089
13.9731
13.0117
12.1129
11.2647
10.4561
9.67743
8.92095
8.18053
7.45149
6.73037
6.01465
5.30254
4.5928
3.88458
3.1773
2.47059
1.76425
1.05816
0.352278
35.1817
34.7438
34.2416
33.6764
33.0536
32.3768
31.6455
30.8544
29.9936
29.0503
28.0108
26.8648
25.6103
24.2583
22.8355
21.3809
19.9397
18.5519
17.2454
16.0341
14.9193
13.8936
12.9448
12.0591
11.2231
10.4248
9.65468
8.90484
8.16941
7.44402
6.7255
6.01157
5.30067
4.59172
3.88399
3.17702
2.47049
1.76423
1.05818
0.352316
35.3619
34.8838
34.3526
33.7681
33.1345
32.4543
31.7258
30.9419
30.0906
29.156
28.1206
26.9699
25.6988
24.3177
22.8559
21.359
19.8799
18.4647
17.1435
15.9292
14.8205
13.8064
12.8718
12.0006
11.1778
10.3909
9.62996
8.88729
8.15726
7.43582
6.72009
6.00812
5.29854
4.59046
3.88329
3.17665
2.47033
1.76419
1.0582
0.352375
35.5116
35.0021
34.4482
33.8485
33.2068
32.5249
31.7998
31.0235
30.182
29.2565
28.2258
27.0714
25.7848
24.3754
22.8754
21.3369
19.821
18.3796
17.0449
15.8287
14.7265
13.7241
12.8033
11.9459
11.1356
10.3594
9.607
8.87099
8.14597
7.42818
6.71505
6.00487
5.29652
4.58925
3.8826
3.17629
2.47016
1.76414
1.05821
0.35244
35.6185
35.0876
34.5182
33.9082
33.2612
32.5785
31.8568
31.0869
30.2535
29.3356
28.3092
27.1525
25.854
24.4221
22.8912
21.3187
19.7731
18.3109
16.9661
15.749
14.6526
13.6598
12.75
11.9035
11.103
10.3351
9.58934
8.85847
8.13729
7.4223
6.71117
6.00237
5.29496
4.58831
3.88206
3.176
2.47003
1.76409
1.05823
0.352495
35.6742
35.1325
34.5551
33.9399
33.2903
32.6075
31.8878
31.1216
30.2928
29.3793
28.3556
27.1978
25.8929
24.4485
22.9
21.3084
19.746
18.2724
16.9221
15.7048
14.6118
13.6244
12.7209
11.8804
11.0853
10.3219
9.57977
8.85169
8.13259
7.41912
6.70907
6.00102
5.29411
4.5878
3.88177
3.17585
2.46995
1.76407
1.05824
0.352526
35.6743
35.1326
34.5552
33.94
33.2905
32.6076
31.8879
31.1217
30.2929
29.3794
28.3557
27.1979
25.893
24.4485
22.9001
21.3085
19.7461
18.2725
16.9222
15.7049
14.6119
13.6245
12.721
11.8804
11.0854
10.3219
9.5798
8.85171
8.13262
7.41914
6.70908
6.00103
5.29412
4.5878
3.88177
3.17585
2.46996
1.76407
1.05824
0.352525
35.6188
35.088
34.5185
33.9085
33.2615
32.5789
31.8572
31.0873
30.2539
29.336
28.3096
27.1528
25.8543
24.4223
22.8913
21.3189
19.7733
18.3112
16.9664
15.7493
14.6528
13.66
12.7502
11.9037
11.1032
10.3352
9.58944
8.85855
8.13736
7.42235
6.71121
6.0024
5.29498
4.58832
3.88207
3.17601
2.47003
1.7641
1.05823
0.352493
35.5121
35.0026
34.4487
33.8491
33.2074
32.5254
31.8005
31.0242
30.1827
29.2571
28.2264
27.0719
25.7853
24.3758
22.8758
21.3372
19.8214
18.3799
17.0453
15.8291
14.7269
13.7245
12.8036
11.9461
11.1358
10.3596
9.60716
8.87112
8.14607
7.42825
6.71511
6.00492
5.29655
4.58927
3.88262
3.1763
2.47017
1.76414
1.05822
0.352438
35.3626
34.8845
34.3533
33.7688
33.1352
32.4551
31.7266
30.9427
30.0915
29.157
28.1215
26.9708
25.6996
24.3183
22.8564
21.3594
19.8804
18.4651
17.1439
15.9297
14.8209
13.8068
12.8722
12.0009
11.1781
10.3912
9.63016
8.88745
8.15739
7.43592
6.72018
6.00818
5.29858
4.59049
3.88331
3.17667
2.47034
1.76419
1.0582
0.352372
35.1826
34.7447
34.2425
33.6772
33.0545
32.3778
31.6465
30.8555
29.9948
29.0515
28.012
26.8659
25.6112
24.2592
22.8362
21.3815
19.9403
18.5524
17.246
16.0346
14.9198
13.894
12.9452
12.0595
11.2234
10.4251
9.6549
8.90502
8.16956
7.44414
6.72559
6.01164
5.30072
4.59176
3.88402
3.17703
2.4705
1.76424
1.05818
0.352312
34.9875
34.597
34.1283
33.5854
32.9756
32.304
31.5716
30.7748
29.9062
28.9556
27.913
26.7717
25.5322
24.2062
22.8177
21.4003
19.9927
18.6297
17.3371
16.1291
15.0094
13.9736
13.0121
12.1133
11.2651
10.4564
9.67767
8.92115
8.18069
7.45162
6.73047
6.01473
5.3026
4.59284
3.88461
3.17731
2.47061
1.76426
1.05817
0.352273
34.796
34.4573
34.0243
33.5049
32.909
32.2438
31.5119
30.7116
29.8373
28.8814
27.8367
26.6991
25.4713
24.1653
22.8029
21.414
20.0322
18.6885
17.4069
16.2019
15.0787
14.0352
13.0639
12.155
11.2973
10.4804
9.69506
8.93335
8.189
7.45711
6.73397
6.01687
5.30384
4.59351
3.88492
3.17742
2.47061
1.76423
1.05814
0.352263
34.6299
34.343
33.9443
33.447
32.8644
32.2059
31.4759
30.6742
29.7968
28.8376
27.7914
26.6558
25.4348
24.1406
22.7939
21.422
20.0557
18.7237
17.4486
16.2452
15.1198
14.0714
13.0941
12.1788
11.3154
10.4936
9.70428
8.93957
8.19301
7.45957
6.73538
6.01759
5.30414
4.59356
3.88484
3.17729
2.47047
1.76411
1.05808
0.352281
34.5136
34.2728
33.9029
33.4231
32.8507
32.1978
31.4704
30.6693
29.7911
28.8308
27.7835
26.6476
25.4277
24.136
22.793
21.4252
20.0624
18.7326
17.4583
16.2543
15.1273
14.0769
13.0976
12.1806
11.3158
10.493
9.70316
8.93816
8.19154
7.45816
6.73412
6.01652
5.30325
4.59284
3.88427
3.17685
2.47014
1.76388
1.05795
0.352299
34.4698
34.2674
33.9164
33.4452
32.877
32.2267
31.5016
30.7027
29.8265
28.8673
27.8195
26.6809
25.4557
24.1562
22.8033
21.4249
20.0518
18.7132
17.4324
16.2246
15.0964
14.0469
13.0701
12.1564
11.2953
10.4762
9.68975
8.9277
8.18355
7.45217
6.72971
6.01331
5.30096
4.59123
3.88314
3.17606
2.46959
1.76349
1.05768
0.352224
34.589
34.3499
33.9747
33.4881
32.9109
32.2563
31.5303
30.733
29.8597
28.9033
27.857
26.717
25.4865
24.1776
22.8121
21.4198
20.0337
18.6851
17.3982
16.1884
15.0614
14.0155
13.0434
12.1348
11.2785
10.4637
9.6806
8.92125
8.17913
7.44924
6.72783
6.01216
5.30028
4.59086
3.88296
3.17599
2.46957
1.76347
1.05763
0.352129
34.6288
34.3419
33.9433
33.446
32.8633
32.2047
31.4747
30.6729
29.7953
28.8361
27.7898
26.6543
25.4334
24.1393
22.7928
21.4211
20.0549
18.723
17.448
16.2447
15.1193
14.0709
13.0937
12.1785
11.3151
10.4933
9.70406
8.93938
8.19285
7.45944
6.73528
6.01752
5.30409
4.59353
3.88482
3.17727
2.47046
1.76411
1.05808
0.352287
34.7409
34.4033
33.9719
33.4547
32.8601
32.1944
31.4601
30.656
29.7775
28.8185
27.7734
26.6399
25.4215
24.1302
22.7865
21.4181
20.0555
18.7274
17.4563
16.2562
15.1331
14.0859
13.1088
12.1929
11.3282
10.5049
9.71384
8.94744
8.19935
7.46456
6.73925
6.02054
5.30636
4.59521
3.88605
3.17817
2.47111
1.76456
1.05834
0.352316
34.9073
34.5131
34.0437
33.5018
32.8921
32.2182
31.4805
30.6762
29.7998
28.8435
27.8003
26.6662
25.4437
24.1441
22.7892
21.4087
20.0358
18.7009
17.4271
16.228
15.1084
14.066
13.0938
12.1824
11.3214
10.5009
9.71189
8.94686
8.19961
7.46528
6.74016
6.02149
5.30725
4.596
3.88671
3.17871
2.47153
1.76487
1.05852
0.352346
35.1034
34.6518
34.143
33.5751
32.9497
32.2678
31.5282
30.7263
29.8547
28.9036
27.8631
26.7264
25.4939
24.1766
22.7979
21.3918
19.9967
18.6464
17.3654
16.1662
15.0517
14.0173
13.0543
12.1518
11.2986
10.4846
9.70069
8.93946
8.19494
7.4625
6.73865
6.02078
5.30703
4.59605
3.8869
3.17895
2.47176
1.76506
1.05866
0.352408
35.3057
34.8008
34.2547
33.6621
33.022
32.3336
31.594
30.797
29.9328
28.9891
27.9525
26.8124
25.5659
24.2231
22.8104
21.3679
19.941
18.5692
17.2782
16.079
14.9716
13.9483
12.9978
12.1074
11.2651
10.46
9.68327
8.92747
8.18695
7.45736
6.73547
6.01893
5.30603
4.59558
3.88675
3.17897
2.47186
1.76518
1.05877
0.352504
35.4938
34.9431
34.3647
33.7506
33.0982
32.4052
31.6673
30.8769
30.0222
29.0878
28.0566
26.9133
25.6511
24.2786
22.8252
21.3388
19.8745
18.478
17.1763
15.9782
14.8797
13.8695
12.9334
12.0569
11.2267
10.4318
9.66309
8.91342
8.17743
7.4511
6.73149
6.01649
5.30461
4.59482
3.88639
3.17885
2.47187
1.76525
1.05887
0.352622
35.6507
35.064
34.46
33.829
33.1673
32.4715
31.7365
30.9534
30.1088
29.1845
28.1598
27.0146
25.7377
24.3355
22.8403
21.3086
19.8062
18.3855
17.0745
15.8788
14.7901
13.7934
12.8716
12.0085
11.1901
10.4049
9.64378
8.89993
8.16824
7.445
6.72756
6.01405
5.30316
4.59401
3.88598
3.17868
2.47183
1.76529
1.05895
0.352739
35.763
35.1516
34.53
33.8875
33.2195
32.5224
31.7903
31.0136
30.1776
29.2623
28.2439
27.0984
25.8104
24.384
22.8532
21.2827
19.7483
18.3084
16.9908
15.7982
14.7183
13.7329
12.8229
11.9706
11.1615
10.3839
9.62872
8.8894
8.16105
7.44022
6.72446
6.01211
5.30199
4.59334
3.88563
3.17852
2.47179
1.76531
1.05902
0.352833
35.8216
35.1976
34.567
33.9186
33.2477
32.5501
31.8198
31.0468
30.2158
29.3059
28.2914
27.1464
25.8525
24.4124
22.8609
21.2676
19.7145
18.2639
16.9432
15.7529
14.6783
13.6995
12.7961
11.9498
11.1459
10.3724
9.6205
8.88366
8.15713
7.43761
6.72277
6.01104
5.30135
4.59297
3.88544
3.17843
2.47176
1.76532
1.05905
0.352886
35.8217
35.1977
34.5671
33.9188
33.2478
32.5502
31.8199
31.0469
30.2159
29.306
28.2916
27.1464
25.8526
24.4124
22.8609
21.2677
19.7146
18.264
16.9434
15.753
14.6784
13.6996
12.7961
11.9499
11.1459
10.3724
9.62054
8.88368
8.15715
7.43762
6.72278
6.01105
5.30136
4.59298
3.88544
3.17843
2.47177
1.76532
1.05905
0.352886
35.7634
35.152
34.5303
33.8878
33.2199
32.5228
31.7907
31.014
30.178
29.2627
28.2442
27.0987
25.8106
24.3841
22.8533
21.2829
19.7485
18.3087
16.9912
15.7985
14.7186
13.7332
12.8231
11.9708
11.1617
10.384
9.62882
8.88948
8.16111
7.44027
6.7245
6.01214
5.30201
4.59336
3.88564
3.17853
2.4718
1.76532
1.05902
0.352832
35.6512
35.0646
34.4605
33.8296
33.1678
32.4721
31.7371
30.954
30.1094
29.1852
28.1604
27.0152
25.7382
24.3359
22.8406
21.3089
19.8065
18.386
17.075
15.8792
14.7905
13.7937
12.8719
12.0088
11.1903
10.4051
9.64393
8.90005
8.16834
7.44508
6.72762
6.01409
5.3032
4.59403
3.886
3.17869
2.47184
1.7653
1.05896
0.352737
35.4945
34.9439
34.3654
33.7513
33.0989
32.4059
31.6681
30.8778
30.0231
29.0888
28.0575
26.9141
25.6518
24.2792
22.8257
21.3393
19.875
18.4785
17.1768
15.9787
14.8801
13.8699
12.9338
12.0572
11.227
10.4321
9.66328
8.91358
8.17756
7.4512
6.73156
6.01655
5.30466
4.59485
3.88641
3.17886
2.47188
1.76526
1.05888
0.352619
35.3066
34.8017
34.2556
33.663
33.0229
32.3346
31.595
30.798
29.934
28.9903
27.9537
26.8135
25.5669
24.224
22.8112
21.3685
19.9416
18.5698
17.2787
16.0795
14.9721
13.9488
12.9982
12.1078
11.2654
10.4603
9.68349
8.92765
8.18709
7.45747
6.73556
6.01899
5.30608
4.59561
3.88677
3.17898
2.47187
1.76519
1.05878
0.352501
35.1044
34.6528
34.1439
33.5761
32.9507
32.2688
31.5293
30.7275
29.856
28.9049
27.8644
26.7277
25.4951
24.1776
22.7988
21.3926
19.9973
18.647
17.3659
16.1667
15.0522
14.0178
13.0547
12.1521
11.2989
10.4849
9.70093
8.93965
8.19509
7.46263
6.73874
6.02086
5.30708
4.59609
3.88693
3.17897
2.47177
1.76506
1.05866
0.352404
34.9084
34.5141
34.0447
33.5028
32.8932
32.2193
31.4817
30.6776
29.8012
28.845
27.8018
26.6677
25.445
24.1453
22.7903
21.4096
20.0365
18.7015
17.4277
16.2285
15.1089
14.0664
13.0942
12.1827
11.3217
10.5011
9.71213
8.94706
8.19977
7.4654
6.74026
6.02157
5.30731
4.59603
3.88674
3.17873
2.47154
1.76487
1.05853
0.352342
34.742
34.4043
33.9729
33.4557
32.8612
32.1956
31.4614
30.6573
29.7789
28.82
27.7749
26.6414
25.4229
24.1315
22.7877
21.419
20.0563
18.7281
17.4569
16.2567
15.1335
14.0864
13.1092
12.1933
11.3285
10.5051
9.71407
8.94763
8.19951
7.46469
6.73934
6.02061
5.30641
4.59524
3.88607
3.17818
2.47111
1.76456
1.05834
0.352312
34.6299
34.343
33.9443
33.447
32.8644
32.2059
31.4759
30.6742
29.7968
28.8377
27.7914
26.6558
25.4349
24.1407
22.7939
21.4221
20.0557
18.7237
17.4486
16.2452
15.1198
14.0714
13.0941
12.1788
11.3153
10.4936
9.70427
8.93955
8.193
7.45955
6.73537
6.01758
5.30413
4.59355
3.88483
3.17728
2.47046
1.7641
1.05807
0.352281
34.5901
34.3509
33.9757
33.4892
32.912
32.2574
31.5316
30.7343
29.8612
28.9049
27.8586
26.7186
25.488
24.1789
22.8133
21.4208
20.0346
18.6858
17.3988
16.1889
15.0618
14.0159
13.0437
12.1351
11.2788
10.4639
9.6808
8.92141
8.17926
7.44934
6.7279
6.01221
5.30032
4.59088
3.88297
3.17599
2.46956
1.76347
1.05762
0.352122
34.752
34.4706
34.0655
33.5592
32.9706
32.3112
31.5856
30.7924
29.925
28.9741
27.9303
26.7872
25.5462
24.2191
22.8296
21.4107
20.0002
18.6326
17.3343
16.1206
14.996
13.9567
12.9934
12.0942
11.2469
10.4398
9.66312
8.90881
8.1705
7.44341
6.72399
6.0097
5.29877
4.58997
3.88246
3.17573
2.46943
1.76339
1.05755
0.35204
34.7949
34.4563
34.0233
33.5038
32.9079
32.2426
31.5107
30.7102
29.8358
28.8799
27.8351
26.6976
25.4699
24.164
22.8018
21.4131
20.0314
18.6878
17.4063
16.2014
15.0783
14.0348
13.0636
12.1546
11.297
10.4802
9.69484
8.93317
8.18885
7.45698
6.73387
6.0168
5.30379
4.59347
3.88489
3.17741
2.4706
1.76422
1.05813
0.352269
34.9073
34.5131
34.0437
33.5018
32.8921
32.2182
31.4804
30.6762
29.7997
28.8435
27.8003
26.6662
25.4436
24.1441
22.7892
21.4087
20.0357
18.7009
17.4271
16.228
15.1084
14.066
13.0938
12.1824
11.3214
10.5009
9.7119
8.94687
8.19961
7.46528
6.74017
6.0215
5.30725
4.596
3.88672
3.17871