# vtk DataFile Version 2.0
I need something to put here
ASCII

DATASET STRUCTURED_GRID
DIMENSIONS 41 11 21
POINTS 9471 float
0.000000 1.000000 0.000000
0.100000 1.000000 0.000000
0.200000 1.000000 0.000000
0.300000 1.000000 0.000000
0.400000 1.000000 0.000000
0.500000 1.000000 0.000000
0.600000 1.000000 0.000000
0.700000 1.000000 0.000000
0.800000 1.000000 0.000000
0.900000 1.000000 0.000000
1.000000 1.000000 0.000000
1.100000 1.000000 0.000000
1.200000 1.000000 0.000000
1.300000 1.000000 0.000000
1.400000 1.000000 0.000000
1.500000 1.000000 0.000000
1.600000 1.000000 0.000000
1.700000 1.000000 0.000000
1.800000 1.000000 0.000000
1.900000 1.000000 0.000000
2.000000 1.000000 0.000000
2.100000 1.000000 0.000000
2.200000 1.000000 0.000000
2.300000 1.000000 0.000000
2.400000 1.000000 0.000000
2.500000 1.000000 0.000000
2.600000 1.000000 0.000000
2.700000 1.000000 0.000000
2.800000 1.000000 0.000000
2.900000 1.000000 0.000000
3.000000 1.000000 0.000000
3.100000 1.000000 0.000000
3.200000 1.000000 0.000000
3.300000 1.000000 0.000000
3.400000 1.000000 0.000000
3.500000 1.000000 0.000000
3.600000 1.000000 0.000000
3.700000 1.000000 0.000000
3.800000 1.000000 0.000000
3.900000 1.000000 0.000000
4.000000 1.000000 0.000000
0.000000 1.100000 0.000000
0.100000 1.100000 0.000000
0.200000 1.100000 0.000000
0.300000 1.100000 0.000000
0.400000 1.100000 0.000000
0.500000 1.100000 0.000000
0.600000 1.100000 0.000000
0.700000 1.100000 0.000000
0.800000 1.100000 0.000000
0.900000 1.100000 0.000000
1.000000 1.100000 0.000000
1.100000 1.100000 0.000000
1.200000 1.100000 0.000000
1.300000 1.100000 0.000000
1.400000 1.100000 0.000000
1.500000 1.100000 0.000000
1.600000 1.100000 0.000000
1.700000 1.100000 0.000000
1.800000 1.100000 0.000000
1.900000 1.100000 0.000000
2.000000 1.100000 0.000000
2.100000 1.100000 0.000000
2.200000 1.100000 0.000000
2.300000 1.100000 0.000000
2.400000 1.100000 0.000000
2.500000 1.100000 0.000000
2.600000 1.100000 0.000000
2.700000 1.100000 0.000000
2.800000 1.100000 0.000000
2.900000 1.100000 0.000000
3.000000 1.100000 0.000000
3.100000 1.100000 0.000000
3.200000 1.100000 0.000000
3.300000 1.100000 0.000000
3.400000 1.100000 0.000000
3.500000 1.100000 0.000000
3.600000 1.100000 0.000000
3.700000 1.100000 0.000000
3.800000 1.100000 0.000000
3.900000 1.100000 0.000000
4.000000 1.100000 0.000000
0.000000 1.200000 0.000000
0.100000 1.200000 0.000000
0.200000 1.200000 0.000000
0.300000 1.200000 0.000000
0.400000 1.200000 0.000000
0.500000 1.200000 0.000000
0.600000 1.200000 0.000000
0.700000 1.200000 0.000000
0.800000 1.200000 0.000000
0.900000 1.200000 0.000000
1.000000 1.200000 0.000000
1.100000 1.200000 0.000000
1.200000 1.200000 0.000000
1.300000 1.200000 0.000000
1.400000 1.200000 0.000000
1.500000 1.200000 0.000000
1.600000 1.200000 0.000000
1.700000 1.200000 0.000000
1.800000 1.200000 0.000000
1.900000 1.200000 0.000000
2.000000 1.200000 0.000000
2.100000 1.200000 0.000000
2.200000 1.200000 0.000000
2.300000 1.200000 0.000000
2.400000 1.200000 0.000000
2.500000 1.200000 0.000000
2.600000 1.200000 0.000000
2.700000 1.200000 0.000000
2.800000 1.200000 0.000000
2.900000 1.200000 0.000000
3.000000 1.200000 0.000000
3.100000 1.200000 0.000000
3.200000 1.200000 0.000000
3.300000 1.200000 0.000000
3.400000 1.200000 0.000000
3.500000 1.200000 0.000000
3.600000 1.200000 0.000000
3.700000 1.200000 0.000000
3.800000 1.200000 0.000000
3.900000 1.200000 0.000000
4.000000 1.200000 0.000000
0.000000 1.300000 0.000000
0.100000 1.300000 0.000000
0.200000 1.300000 0.000000
0.300000 1.300000 0.000000
0.400000 1.300000 0.000000
0.500000 1.300000 0.000000
0.600000 1.300000 0.000000
0.700000 1.300000 0.000000
0.800000 1.300000 0.000000
0.900000 1.300000 0.000000
1.000000 1.300000 0.000000
1.100000 1.300000 0.000000
1.200000 1.300000 0.000000
1.300000 1.300000 0.000000
1.400000 1.300000 0.000000
1.500000 1.300000 0.000000
1.600000 1.300000 0.000000
1.700000 1.300000 0.000000
1.800000 1.300000 0.000000
1.900000 1.300000 0.000000
2.000000 1.300000 0.000000
2.100000 1.300000 0.000000
2.200000 1.300000 0.000000
2.300000 1.300000 0.000000
2.400000 1.300000 0.000000
2.500000 1.300000 0.000000
2.600000 1.300000 0.000000
2.700000 1.300000 0.000000
2.800000 1.300000 0.000000
2.900000 1.300000 0.000000
3.000000 1.300000 0.000000
3.100000 1.300000 0.000000
3.200000 1.300000 0.000000
3.300000 1.300000 0.000000
3.400000 1.300000 0.000000
3.500000 1.300000 0.000000
3.600000 1.300000 0.000000
3.700000 1.300000 0.000000
3.800000 1.300000 0.000000
3.900000 1.300000 0.000000
4.000000 1.300000 0.000000
0.000000 1.400000 0.000000
0.100000 1.400000 0.000000
0.200000 1.400000 0.000000
0.300000 1.400000 0.000000
0.400000 1.400000 0.000000
0.500000 1.400000 0.000000
0.600000 1.400000 0.000000
0.700000 1.400000 0.000000
0.800000 1.400000 0.000000
0.900000 1.400000 0.000000
1.000000 1.400000 0.000000
1.100000 1.400000 0.000000
1.200000 1.400000 0.000000
1.300000 1.400000 0.000000
1.400000 1.400000 0.000000
1.500000 1.400000 0.000000
1.600000 1.400000 0.000000
1.700000 1.400000 0.000000
1.800000 1.400000 0.000000
1.900000 1.400000 0.000000
2.000000 1.400000 0.000000
2.100000 1.400000 0.000000
2.200000 1.400000 0.000000
2.300000 1.400000 0.000000
2.400000 1.400000 0.000000
2.500000 1.400000 0.000000
2.600000 1.400000 0.000000
2.700000 1.400000 0.000000
2.800000 1.400000 0.000000
2.900000 1.400000 0.000000
3.000000 1.400000 0.000000
3.100000 1.400000 0.000000
3.200000 1.400000 0.000000
3.300000 1.400000 0.000000
3.400000 1.400000 0.000000
3.500000 1.400000 0.000000
3.600000 1.400000 0.000000
3.700000 1.400000 0.000000
3.800000 1.400000 0.000000
3.900000 1.400000 0.000000
4.000000 1.400000 0.000000
0.000000 1.500000 0.000000
0.100000 1.500000 0.000000
0.200000 1.500000 0.000000
0.300000 1.500000 0.000000
0.400000 1.500000 0.000000
0.500000 1.500000 0.000000
0.600000 1.500000 0.000000
0.700000 1.500000 0.000000
0.800000 1.500000 0.000000
0.900000 1.500000 0.000000
1.000000 1.500000 0.000000
1.100000 1.500000 0.000000
1.200000 1.500000 0.000000
1.300000 1.500000 0.000000
1.400000 1.500000 0.000000
1.500000 1.500000 0.000000
1.600000 1.500000 0.000000
1.700000 1.500000 0.000000
1.800000 1.500000 0.000000
1.900000 1.500000 0.000000
2.000000 1.500000 0.000000
2.100000 1.500000 0.000000
2.200000 1.500000 0.000000
2.300000 1.500000 0.000000
2.400000 1.500000 0.000000
2.500000 1.500000 0.000000
2.600000 1.500000 0.000000
2.700000 1.500000 0.000000
2.800000 1.500000 0.000000
2.900000 1.500000 0.000000
3.000000 1.500000 0.000000
3.100000 1.500000 0.000000
3.200000 1.500000 0.000000
3.300000 1.500000 0.000000
3.400000 1.500000 0.000000
3.500000 1.500000 0.000000
3.600000 1.500000 0.000000
3.700000 1.500000 0.000000
3.800000 1.500000 0.000000
3.900000 1.500000 0.000000
4.000000 1.500000 0.000000
0.000000 1.600000 0.000000
0.100000 1.600000 0.000000
0.200000 1.600000 0.000000
0.300000 1.600000 0.000000
0.400000 1.600000 0.000000
0.500000 1.600000 0.000000
0.600000 1.600000 0.000000
0.700000 1.600000 0.000000
0.800000 1.600000 0.000000
0.900000 1.600000 0.000000
1.000000 1.600000 0.000000
1.100000 1.600000 0.000000
1.200000 1.600000 0.000000
1.300000 1.600000 0.000000
1.400000 1.600000 0.000000
1.500000 1.600000 0.000000
1.600000 1.600000 0.000000
1.700000 1.600000 0.000000
1.800000 1.600000 0.000000
1.900000 1.600000 0.000000
2.000000 1.600000 0.000000
2.100000 1.600000 0.000000
2.200000 1.600000 0.000000
2.300000 1.600000 0.000000
2.400000 1.600000 0.000000
2.500000 1.600000 0.000000
2.600000 1.600000 0.000000
2.700000 1.600000 0.000000
2.800000 1.600000 0.000000
2.900000 1.600000 0.000000
3.000000 1.600000 0.000000
3.100000 1.600000 0.000000
3.200000 1.600000 0.000000
3.300000 1.600000 0.000000
3.400000 1.600000 0.000000
3.500000 1.600000 0.000000
3.600000 1.600000 0.000000
3.700000 1.600000 0.000000
3.800000 1.600000 0.000000
3.900000 1.600000 0.000000
4.000000 1.600000 0.000000
0.000000 1.700000 0.000000
0.100000 1.700000 0.000000
0.200000 1.700000 0.000000
0.300000 1.700000 0.000000
0.400000 1.700000 0.000000
0.500000 1.700000 0.000000
0.600000 1.700000 0.000000
0.700000 1.700000 0.000000
0.800000 1.700000 0.000000
0.900000 1.700000 0.000000
1.000000 1.700000 0.000000
1.100000 1.700000 0.000000
1.200000 1.700000 0.000000
1.300000 1.700000 0.000000
1.400000 1.700000 0.000000
1.500000 1.700000 0.000000
1.600000 1.700000 0.000000
1.700000 1.700000 0.000000
1.800000 1.700000 0.000000
1.900000 1.700000 0.000000
2.000000 1.700000 0.000000
2.100000 1.700000 0.000000
2.200000 1.700000 0.000000
2.300000 1.700000 0.000000
2.400000 1.700000 0.000000
2.500000 1.700000 0.000000
2.600000 1.700000 0.000000
2.700000 1.700000 0.000000
2.800000 1.700000 0.000000
2.900000 1.700000 0.000000
3.000000 1.700000 0.000000
3.100000 1.700000 0.000000
3.200000 1.700000 0.000000
3.300000 1.700000 0.000000
3.400000 1.700000 0.000000
3.500000 1.700000 0.000000
3.600000 1.700000 0.000000
3.700000 1.700000 0.000000
3.800000 1.700000 0.000000
3.900000 1.700000 0.000000
4.000000 1.700000 0.000000
0.000000 1.800000 0.000000
0.100000 1.800000 0.000000
0.200000 1.800000 0.000000
0.300000 1.800000 0.000000
0.400000 1.800000 0.000000
0.500000 1.800000 0.000000
0.600000 1.800000 0.000000
0.700000 1.800000 0.000000
0.800000 1.800000 0.000000
0.900000 1.800000 0.000000
1.000000 1.800000 0.000000
1.100000 1.800000 0.000000
1.200000 1.800000 0.000000
1.300000 1.800000 0.000000
1.400000 1.800000 0.000000
1.500000 1.800000 0.000000
1.600000 1.800000 0.000000
1.700000 1.800000 0.000000
1.800000 1.800000 0.000000
1.900000 1.800000 0.000000
2.000000 1.800000 0.000000
2.100000 1.800000 0.000000
2.200000 1.800000 0.000000
2.300000 1.800000 0.000000
2.400000 1.800000 0.000000
2.500000 1.800000 0.000000
2.600000 1.800000 0.000000
2.700000 1.800000 0.000000
2.800000 1.800000 0.000000
2.900000 1.800000 0.000000
3.000000 1.800000 0.000000
3.100000 1.800000 0.000000
3.200000 1.800000 0.000000
3.300000 1.800000 0.000000
3.400000 1.800000 0.000000
3.500000 1.800000 0.000000
3.600000 1.800000 0.000000
[...]
CELL_DATA 8000
SCALARS pressure float 1
LOOKUP_TABLE default
-36.4261
-27.988
-24.2835
-22.4774
-21.44
-20.7188
-20.1223
-19.5599
-18.9809
-18.3503
-17.6443
-16.8522
-15.9797
-15.0463
-14.0761
-13.0921
-12.1169
-11.1762
-10.2987
-9.50824
-8.81271
-8.20349
-7.6624
-7.16926
-6.70667
-6.26175
-5.82605
-5.39457
-4.96457
-4.53475
-4.10456
-3.67384
-3.24261
-2.81094
-2.37892
-1.94663
-1.51415
-1.08154
-0.648864
-0.216205
-36.106
-27.8379
-24.2065
-22.4329
-21.4098
-20.6942
-20.0986
-19.5348
-18.9534
-18.321
-17.615
-16.8254
-15.9577
-15.031
-14.0688
-13.0933
-12.1269
-11.1942
-10.323
-9.536
-8.84072
-8.22922
-7.68436
-7.18694
-6.72024
-6.27177
-5.83322
-5.39956
-4.96797
-4.53701
-4.10602
-3.67477
-3.24317
-2.81127
-2.3791
-1.94673
-1.51419
-1.08155
-0.648858
-0.216193
-35.4708
-27.5423
-24.0564
-22.3469
-21.3522
-20.6474
-20.0537
-19.487
-18.9012
-18.2656
-17.5598
-16.7753
-15.9175
-15.0042
-14.0572
-13.0979
-12.1477
-11.2302
-10.3707
-9.58984
-8.89481
-8.27884
-7.72673
-7.22112
-6.74658
-6.29135
-5.84734
-5.4095
-4.97482
-4.54164
-4.10911
-3.67679
-3.24447
-2.81209
-2.37961
-1.94703
-1.51436
-1.08164
-0.648888
-0.21619
-34.5337
-27.1135
-23.8441
-22.2294
-21.2758
-20.5868
-19.9957
-19.4252
-18.8335
-18.1936
-17.4881
-16.7105
-15.866
-14.9703
-14.0434
-13.1054
-12.1765
-11.2786
-10.4343
-9.66135
-8.9665
-8.34456
-7.78289
-7.26649
-6.78162
-6.31744
-5.86622
-5.42283
-4.98405
-4.54792
-4.11331
-3.67956
-3.24627
-2.81324
-2.38033
-1.94747
-1.51462
-1.08177
-0.648943
-0.216192
-33.3161
-26.5713
-23.5869
-22.0948
-21.1933
-20.5237
-19.9358
-19.3609
-18.7623
-18.1173
-17.4119
-16.6415
-15.8112
-14.9347
-14.0297
-13.1148
-12.2091
-11.3323
-10.504
-9.73952
-9.04482
-8.41645
-7.84442
-7.3163
-6.82018
-6.34622
-5.88708
-5.43759
-4.99428
-4.55489
-4.11799
-3.68266
-3.24829
-2.81454
-2.38115
-1.94797
-1.51492
-1.08194
-0.649015
-0.216199
-31.8511
-25.9453
-23.3094
-21.9628
-21.1206
-20.4715
-19.8863
-19.306
-18.6997
-18.0489
-17.3429
-16.5788
-15.7614
-14.9026
-14.0181
-13.125
-12.2409
-11.3837
-10.5702
-9.81348
-9.11896
-8.48463
-7.90294
-7.3638
-6.85702
-6.37377
-5.90707
-5.45174
-5.0041
-4.56159
-4.12249
-3.68564
-3.25024
-2.81579
-2.38194
-1.94846
-1.51521
-1.0821
-0.649094
-0.216213
-30.1908
-25.2802
-23.0455
-21.858
-21.0753
-20.4437
-19.8581
-19.2704
-18.6553
-17.9979
-17.2901
-16.5301
-15.7225
-14.8779
-14.01
-13.1347
-12.2682
-11.4268
-10.6253
-9.87481
-9.18043
-8.54128
-7.95168
-7.40345
-6.88783
-6.39684
-5.92382
-5.4636
-5.01233
-4.5672
-4.12626
-3.68813
-3.25186
-2.81683
-2.3826
-1.94887
-1.51546
-1.08225
-0.649171
-0.216238
-28.426
-24.6462
-22.8415
-21.8084
-21.0741
-20.4505
-19.8584
-19.2599
-18.6343
-17.9692
-17.258
-16.4994
-15.6978
-14.8624
-14.0058
-13.1428
-12.2885
-11.4581
-10.6648
-9.91851
-9.22418
-8.58161
-7.98641
-7.43172
-6.90981
-6.41329
-5.93576
-5.47205
-5.01818
-4.57118
-4.12893
-3.68989
-3.25301
-2.81757
-2.38306
-1.94916
-1.51564
-1.08235
-0.649237
-0.216273
-26.7399
-24.1578
-22.7538
-21.8371
-21.1239
-20.4924
-19.8855
-19.2726
-18.6353
-17.962
-17.2462
-16.4866
-15.687
-14.8559
-14.005
-13.1483
-12.3005
-11.4758
-10.6867
-9.94261
-9.2482
-8.60368
-8.00536
-7.44709
-6.92171
-6.42216
-5.94216
-5.47655
-5.02128
-4.57328
-4.13032
-3.6908
-3.2536
-2.81794
-2.3833
-1.9493
-1.51572
-1.08241
-0.649282
-0.216312
-25.5614
-23.9872
-22.8188
-21.9314
-21.2008
-20.547
-19.9219
-19.2959
-18.6496
-17.9703
-17.2507
-16.4889
-15.6883
-14.8569
-14.0063
-13.1501
-12.3029
-11.4788
-10.6903
-9.94632
-9.25173
-8.60675
-8.00782
-7.44893
-6.923
-6.42301
-5.94269
-5.47686
-5.02144
-4.57335
-4.13034
-3.6908
-3.25359
-2.81792
-2.38327
-1.94928
-1.51571
-1.0824
-0.649284
-0.216334
-29.6187
-26.6814
-24.3167
-22.7269
-21.6411
-20.8322
-20.1593
-19.539
-18.9188
-18.2629
-17.5472
-16.76
-15.9048
-14.9987
-14.0625
-13.1152
-12.1753
-11.2641
-10.4071
-9.62625
-8.92914
-8.30911
-7.75161
-7.24027
-6.76051
-6.30105
-5.85391
-5.4139
-4.97779
-4.5437
-4.11058
-3.67787
-3.2453
-2.81273
-2.38011
-1.94742
-1.51468
-1.08191
-0.649116
-0.216339
-29.4339
-26.5578
-24.24
-22.6786
-21.6084
-20.8071
-20.1371
-19.5169
-18.8956
-18.2388
-17.5233
-16.7381
-15.8869
-14.9862
-14.0563
-13.1157
-12.1828
-11.2782
-10.4265
-9.64858
-8.95185
-8.33014
-7.76974
-7.25502
-6.77199
-6.30964
-5.86015
-5.41831
-4.98082
-4.54573
-4.11191
-3.67872
-3.24582
-2.81304
-2.38028
-1.94751
-1.51472
-1.08191
-0.649108
-0.216324
-29.0695
-26.315
-24.0902
-22.585
-21.5455
-20.7591
-20.0947
-19.4746
-18.8514
-18.1928
-17.478
-16.6973
-15.8544
-14.9644
-14.0466
-13.1187
-12.1987
-11.3065
-10.4646
-9.69215
-8.99594
-8.37089
-7.80487
-7.2837
-6.79439
-6.32653
-5.87251
-5.42713
-4.98698
-4.54996
-4.11475
-3.6806
-3.24704
-2.81381
-2.38076
-1.9478
-1.51488
-1.08199
-0.649134
-0.216314
-28.5387
-25.9655
-23.8784
-22.4558
-21.4608
-20.6959
-20.0393
-19.4198
-18.794
-18.1331
-17.4191
-16.6444
-15.8125
-14.9369
-14.0349
-13.1238
-12.2208
-11.3447
-10.5156
-9.75007
-9.0544
-8.42487
-7.85142
-7.32174
-6.82416
-6.34902
-5.88902
-5.43895
-4.99527
-4.55566
-4.11861
-3.68317
-3.24872
-2.81489
-2.38144
-1.94822
-1.51513
-1.08212
-0.649183
-0.216306
-27.8632
-25.529
-23.6216
-22.305
-21.3663
-20.6279
-19.9812
-19.3624
-18.7335
-18.0699
-17.3568
-16.5883
-15.7682
-14.9081
-14.0234
-13.1304
-12.2458
-11.3869
-10.5714
-9.8131
-9.11798
-8.48366
-7.90221
-7.36332
-6.85675
-6.37368
-5.90713
-5.45193
-5.00438
-4.56194
-4.12287
-3.68601
-3.25059
-2.8161
-2.38221
-1.94869
-1.51541
-1.08227
-0.649246
-0.216301
-27.0757
-25.0344
-23.3434
-22.1514
-21.2768
-20.5677
-19.9311
-19.3129
-18.6806
-18.014
-17.3011
-16.538
-15.7283
-14.8823
-14.0136
-13.1376
-12.27
-11.4269
-10.6236
-9.87195
-9.17737
-8.53868
-7.94985
-7.40238
-6.8874
-6.39688
-5.92417
-5.46414
-5.01295
-4.56783
-4.12686
-3.68866
-3.25233
-2.81722
-2.38292
-1.94913
-1.51567
-1.08242
-0.649309
-0.216301
-26.2246
-24.5233
-23.0759
-22.0182
-21.209
-20.5277
-19.8995
-19.2805
-18.6441
-17.9737
-17.2601
-16.5004
-15.6984
-14.863
-14.0069
-13.1443
-12.2902
-11.4594
-10.6656
-9.91902
-9.22485
-8.58271
-7.988
-7.43368
-6.91194
-6.41542
-5.93776
-5.47384
-5.01972
-4.57247
-4.12998
-3.69073
-3.25368
-2.81808
-2.38346
-1.94946
-1.51586
-1.08253
-0.649361
-0.21631
-25.3864
-24.0565
-22.8601
-21.9309
-21.1784
-20.5176
-19.8932
-19.271
-18.6293
-17.9544
-17.2386
-16.4799
-15.6817
-14.8525
-14.0039
-13.1495
-12.3036
-11.4804
-10.6924
-9.94895
-9.25494
-8.61053
-8.01201
-7.45326
-6.92719
-6.42685
-5.94605
-5.47969
-5.02376
-4.5752
-4.13179
-3.6919
-3.25442
-2.81855
-2.38374
-1.94962
-1.51595
-1.08258
-0.649387
-0.216325
-24.6903
-23.7225
-22.7449
-21.9126
-21.1945
-20.541
-19.9136
-19.2854
-18.6376
-17.9577
-17.2385
-16.4781
-15.6798
-14.8515
-14.0044
-13.1519
-12.3082
-11.4871
-10.7008
-9.95811
-9.26396
-8.61863
-8.01874
-7.4585
-6.93105
-6.42955
-5.94785
-5.48084
-5.02445
-4.57559
-4.13199
-3.69199
-3.25444
-2.81853
-2.3837
-1.94958
-1.51592
-1.08255
-0.649373
-0.216338
-24.3533
-23.6427
-22.7772
-21.9729
-21.2529
-20.5903
-19.9541
-19.3191
-18.6663
-17.9825
-17.2597
-16.4956
-15.693
-14.86
-14.0079
-13.1503
-12.3019
-11.4769
-10.6876
-9.94325
-9.2487
-8.60408
-8.00568
-7.44735
-6.92192
-6.42233
-5.9423
-5.47667
-5.02137
-4.57336
-4.13038
-3.69085
-3.25364
-2.81798
-2.38332
-1.94932
-1.51574
-1.08242
-0.649292
-0.216318
-25.8972
-24.9221
-23.6423
-22.5113
-21.5907
-20.8292
-20.1628
-19.5388
-18.9157
-18.2607
-17.5476
-16.7602
-15.9011
-14.9955
-14.0677
-13.1319
-12.1993
-11.2851
-10.4203
-9.63724
-8.94363
-8.32831
-7.77353
-7.26211
-6.78015
-6.31743
-5.86684
-5.4237
-4.98501
-4.54891
-4.11428
-3.68047
-3.24712
-2.81399
-2.38098
-1.94803
-1.5151
-1.08219
-0.649306
-0.216432
-25.7846
-24.8329
-23.579
-22.4676
-21.5594
-20.8047
-20.141
-19.5171
-18.8927
-18.2364
-17.5231
-16.7378
-15.8828
-14.9826
-14.0608
-13.1313
-12.2054
-11.2984
-10.4397
-9.66004
-8.96665
-8.34928
-7.79127
-7.27632
-6.79108
-6.32555
-5.8727
-5.42783
-4.98785
-4.55081
-4.11553
-3.68127
-3.24761
-2.81428
-2.38114
-1.94811
-1.51513
-1.0822
-0.649296
-0.216411
-25.5646
-24.659
-23.4559
-22.383
-21.4992
-20.7577
-20.0992
-19.4753
-18.8484
-18.1895
-17.4762
-16.6954
-15.8497
-14.9607
-14.0503
-13.1323
-12.2189
-11.3254
-10.4785
-9.70493
-9.01161
-8.39003
-7.8257
-7.30397
-6.81242
-6.3415
-5.88433
-5.43611
-4.99363
-4.55477
-4.11819
-3.68303
-3.24875
-2.815
-2.38159
-1.94837
-1.51528
-1.08227
-0.649314
-0.216391
-25.2506
-24.4124
-23.2836
-22.2665
-21.418
-20.6953
-20.0445
-19.4209
-18.7908
-18.1284
-17.4148
-16.64
-15.807
-14.9333
-14.0378
-13.135
-12.2379
-11.3622
-10.5306
-9.76469
-9.07106
-8.44377
-7.87111
-7.34045
-6.84062
-6.36264
-5.89977
-5.44714
-5.00135
-4.56009
-4.12179
-3.68542
-3.25031
-2.81601
-2.38222
-1.94876
-1.51551
-1.08239
-0.649352
-0.216371
-24.8644
-24.1121
-23.0782
-22.1317
-21.3271
-20.6279
-19.9866
-19.3639
-18.7306
-18.0645
-17.3508
-16.5822
-15.7623
-14.9046
-14.0254
-13.1392
-12.2596
-11.4024
-10.5865
-9.82845
-9.13459
-8.50137
-7.91992
-7.37978
-6.87108
-6.38549
-5.91647
-5.45907
-5.00971
-4.56584
-4.12568
-3.68802
-3.25202
-2.81711
-2.38291
-1.94918
-1.51575
-1.08252
-0.649398
-0.216351
-24.4367
-23.7846
-22.8613
-21.9958
-21.2406
-20.5673
-19.9364
-19.3151
-18.6787
-18.0093
-17.2953
-16.532
-15.7231
-14.8794
-14.015
-13.144
-12.2804
-11.4394
-10.6368
-9.88573
-9.19189
-8.5536
-7.96437
-7.41568
-6.89891
-6.40637
-5.9317
-5.46992
-5.01729
-4.57104
-4.12919
-3.69035
-3.25353
-2.81808
-2.38352
-1.94955
-1.51597
-1.08263
-0.64944
-0.216335
-24.0096
-23.4653
-22.6606
-21.8795
-21.174
-20.5255
-19.9042
-19.2838
-18.6445
-17.9718
-17.2569
-16.4968
-15.6952
-14.8614
-14.008
-13.1484
-12.2968
-11.4676
-10.6745
-9.92847
-9.23474
-8.59276
-7.99773
-7.44259
-6.9197
-6.42187
-5.94293
-5.47787
-5.02279
-4.57477
-4.13168
-3.69197
-3.25457
-2.81873
-2.38392
-1.94979
-1.5161
-1.08269
-0.649463
-0.216328
-23.6398
-23.1995
-22.509
-21.8053
-21.1422
-20.5132
-19.8979
-19.277
-18.6343
-17.958
-17.2411
-16.4814
-15.6828
-14.8535
-14.0052
-13.1513
-12.3058
-11.4827
-10.6945
-9.95105
-9.25726
-8.61316
-8.01487
-7.45616
-6.92996
-6.42933
-5.94818
-5.48145
-5.02517
-4.57631
-4.13265
-3.69256
-3.25492
-2.81892
-2.38401
-1.94982
-1.5161
-1.08268
-0.649452
-0.216328
-23.4008
-23.043
-22.4431
-21.7946
-21.1573
-20.5368
-19.922
-19.298
-18.6513
-17.9711
-17.2508
-16.4885
-15.6878
-14.8567
-14.0068
-13.1514
-12.3049
-11.4813
-10.693
-9.94936
-9.25522
-8.61073
-8.01215
-7.45336
-6.92726
-6.4269
-5.94609
-5.47972
-5.02378
-4.57521
-4.1318
-3.69191
-3.25443
-2.81855
-2.38374
-1.94962
-1.51595
-1.08258
-0.64939
-0.216326
-23.3642
-23.0562
-22.4993
-21.8648
-21.2257
-20.5985
-19.9767
-19.3472
-18.6963
-18.0123
-17.2876
-16.5196
-15.7116
-14.8718
-14.0124
-13.1473
-12.2917
-11.4604
-10.6665
-9.91974
-9.22511
-8.58232
-7.98696
-7.43215
-6.91015
-6.41356
-5.93597
-5.47222
-5.01831
-4.57129
-4.12902
-3.68996
-3.25307
-2.81761
-2.3831
-1.94918
-1.51565
-1.08237
-0.649251
-0.21628
-23.8688
-23.5571
-22.8783
-22.1226
-21.4057
-20.75
-20.1418
-19.5567
-18.9668
-18.3423
-17.6499
-16.8587
-15.9655
-15.0297
-14.0898
-13.1487
-12.2015
-11.2462
-10.3337
-9.53564
-8.85463
-8.26272
-7.7307
-7.2368
-6.76663
-6.3111
-5.86454
-5.42345
-4.98567
-4.54988
-4.11527
-3.68135
-3.24784
-2.81456
-2.38142
-1.94836
-1.51535
-1.08238
-0.649442
-0.216517
-23.7937
-23.4937
-22.8293
-22.0861
-21.3777
-20.7266
-20.1196
-19.533
-18.9402
-18.3125
-17.6188
-16.83
-15.9426
-15.0134
-14.0804
-13.1458
-12.2063
-11.261
-10.3582
-9.56505
-8.88371
-8.28821
-7.75137
-7.25272
-6.77846
-6.31964
-5.87057
-5.42762
-4.9885
-4.55176
-4.11648
-3.68211
-3.2483
-2.81483
-2.38156
-1.94843
-1.51538
-1.08238
-0.649428
-0.216492
-23.6487
-23.371
-22.7348
-22.0157
-21.3237
-20.6814
-20.0766
-19.4871
-18.8882
-18.254
-17.5573
-16.7739
-15.9013
-14.9878
-14.067
-13.1435
-12.2177
-11.2921
-10.4087
-9.62434
-8.94119
-8.33795
-7.7915
-7.28363
-6.8015
-6.33639
-5.8825
-5.43597
-4.99424
-4.55564
-4.11907
-3.68381
-3.24939
-2.81551
-2.38198
-1.94867
-1.51551
-1.08244
-0.649438
-0.216463
-23.4476
-23.2008
-22.6047
-21.9199
-21.2515
-20.6217
-20.0203
-19.4273
-18.8203
-18.177
-17.4754
-16.6985
-15.8475
-14.956
-14.0514
-13.1426
-12.2345
-11.3355
-10.4788
-9.7045
-9.01748
-8.40338
-7.8441
-7.32414
-6.83172
-6.35841
-5.89822
-5.44699
-5.00185
-4.56082
-4.12254
-3.68609
-3.25087
-2.81646
-2.38257
-1.94903
-1.51571
-1.08254
-0.649463
-0.21643
-23.2116
-23.0011
-22.4538
-21.8112
-21.1717
-20.5578
-19.9613
-19.365
-18.75
-18.0977
-17.3919
-16.6219
-15.7914
-14.9223
-14.0357
-13.1437
-12.2552
-11.3828
-10.5514
-9.78735
-9.09696
-8.47207
-7.89967
-7.3671
-6.86386
-6.38184
-5.91494
-5.45872
-5.00994
-4.56631
-4.12621
-3.68851
-3.25244
-2.81746
-2.38319
-1.9494
-1.51593
-1.08265
-0.64949
-0.216395
-22.9695
-22.7954
-22.3015
-21.7054
-21.0978
-20.5013
-19.9108
-19.3124
-18.6908
-18.0313
-17.3224
-16.5583
-15.7433
-14.8924
-14.0223
-13.146
-12.2755
-11.4248
-10.613
-9.8578
-9.16549
-8.53208
-7.94864
-7.40514
-6.89235
-6.40258
-5.92969
-5.469
-5.01699
-4.57106
-4.12937
-3.69058
-3.25376
-2.81829
-2.3837
-1.94971
-1.51609
-1.08273
-0.649508
-0.216364
-22.7569
-22.6122
-22.1703
-21.6203
-21.0439
-20.4642
-19.8797
-19.2801
-18.6534
-17.9884
-17.277
-16.5163
-15.7108
-14.8718
-14.0131
-13.1484
-12.2908
-11.4547
-10.6556
-9.90661
-9.21339
-8.57432
-7.98317
-7.43186
-6.9122
-6.41686
-5.93971
-5.47587
-5.02161
-4.57411
-4.13134
-3.69183
-3.25454
-2.81875
-2.38397
-1.94985
-1.51616
-1.08275
-0.649502
-0.216342
-22.6133
-22.4828
-22.0847
-21.5743
-21.0238
-20.4573
-19.8769
-19.2759
-18.6451
-17.9755
-17.2612
-16.5007
-15.6983
-14.8637
-14.0095
-13.1493
-12.2973
-11.4678
-10.6745
-9.92838
-9.2346
-8.59259
-7.99756
-7.44243
-6.91955
-6.42174
-5.94281
-5.47776
-5.0227
-4.5747
-4.13162
-3.69192
-3.25453
-2.81869
-2.38389
-1.94976
-1.51608
-1.08268
-0.649458
-0.216327
-22.5727
-22.4363
-22.0681
-21.5845
-21.0492
-20.4886
-19.9084
-19.3049
-18.6702
-17.9965
-17.2782
-16.514
-15.7083
-14.87
-14.0116
-13.1474
-12.2921
-11.4606
-10.6663
-9.9194
-9.22503
-8.58278
-7.988
-7.43363
-6.91187
-6.41534
-5.93768
-5.47376
-5.01965
-4.57242
-4.12993
-3.69069
-3.25364
-2.81805
-2.38343
-1.94944
-1.51585
-1.08252
-0.64936
-0.21631
-22.6322
-22.4905
-22.1407
-21.6656
-21.1292
-20.5633
-19.9775
-19.3694
-18.7311
-18.0535
-17.3298
-16.558
-15.7419
-14.8912
-14.0191
-13.1408
-12.2723
-11.4296
-10.6273
-9.87615
-9.18138
-8.54195
-7.95216
-7.40379
-6.88808
-6.39702
-5.92396
-5.4637
-5.0124
-4.56726
-4.1263
-3.68816
-3.25189
-2.81685
-2.38261
-1.94888
-1.51547
-1.08225
-0.649182
-0.216245
-22.7348
-22.6257
-22.2407
-21.7304
-21.185
-20.6442
-20.1183
-19.602
-19.0799
-18.5245
-17.8865
-17.0921
-16.0963
-15.0816
-14.1214
-13.1737
-12.2077
-11.1513
-10.1093
-9.28689
-8.6451
-8.10839
-7.62533
-7.16823
-6.7235
-6.28468
-5.84872
-5.41418
-4.98036
-4.54692
-4.11368
-3.68055
-3.24747
-2.81442
-2.38141
-1.9484
-1.51542
-1.08247
-0.649528
-0.216604
-22.679
-22.5787
-22.203
-21.7005
-21.1603
-20.6215
-20.0944
-19.5739
-19.0455
-18.4833
-17.8417
-17.0511
-16.0659
-15.06
-14.1082
-13.1666
-12.2087
-11.1683
-10.1444
-9.33064
-8.68713
-8.14345
-7.65231
-7.18803
-6.73758
-6.29448
-5.85542
-5.41869
-4.98335
-4.54886
-4.11492
-3.68131
-3.24792
-2.81468
-2.38154
-1.94847
-1.51544
-1.08246
-0.64951
-0.216575
-22.5728
-22.4889
-22.1308
-21.6431
-21.1126
-20.5775
-20.0478
-19.5188
-18.977
-18.3992
-17.7473
-16.964
-16.0096
-15.0311
-14.0909
-13.1575
-12.2134
-11.2073
-10.2237
-9.4237
-8.77251
-8.21269
-7.70484
-7.22637
-6.76488
-6.31358
-5.86859
-5.42766
-4.98938
-4.55287
-4.11754
-3.683
-3.24899
-2.81534
-2.38194
-1.9487
-1.51557
-1.08251
-0.649512
-0.216538
-22.43
-22.3676
-22.0334
-21.5664
-21.0495
-20.5198
-19.987
-19.4468
-18.8864
-18.2856
-17.6144
-16.8351
-15.9336
-14.9967
-14.072
-13.1501
-12.2208
-11.2659
-10.3453
-9.5561
-8.88821
-8.30426
-7.7736
-7.27639
-6.80049
-6.33851
-5.88582
-5.43941
-4.99731
-4.55815
-4.12101
-3.68525
-3.25043
-2.81625
-2.38249
-1.94902
-1.51575
-1.08259
-0.649523
-0.216493
-22.2716
-22.2316
-21.9247
-21.4819
-20.9816
-20.459
-19.9239
-19.3726
-18.7939
-18.1715
-17.4842
-16.7117
-15.8539
-14.9565
-14.0524
-13.1463
-12.2382
-11.3305
-10.4625
-9.6865
-9.00511
-8.39843
-7.84512
-7.32876
-6.8379
-6.36474
-5.90392
-5.45174
-5.0056
-4.56366
-4.12462
-3.68759
-3.25192
-2.81718
-2.38306
-1.94935
-1.51593
-1.08268
-0.649533
-0.216444
-22.1244
-22.1018
-21.8216
-21.404
-20.9214
-20.4072
-19.8712
-19.3111
-18.7179
-18.0792
-17.3818
-16.6163
-15.7869
-14.9187
-14.0345
-13.1454
-12.2589
-11.3863
-10.5537
-9.78996
-9.10112
-8.4779
-7.9065
-7.37409
-6.87034
-6.38742
-5.91949
-5.46226
-5.0126
-4.56826
-4.1276
-3.68948
-3.2531
-2.8179
-2.38349
-1.9496
-1.51605
-1.08272
-0.649528
-0.216398
-22.0186
-22.0012
-21.7423
-21.3477
-20.882
-20.3763
-19.8407
-19.2744
-18.6709
-18.0215
-17.3179
-16.5564
-15.7425
-14.8919
-14.0218
-13.1454
-12.2748
-11.424
-10.6122
-9.85709
-9.16484
-8.53149
-7.94812
-7.40468
-6.89195
-6.40223
-5.9294
-5.46876
-5.01678
-4.57089
-4.12923
-3.69046
-3.25367
-2.81821
-2.38364
-1.94966
-1.51606
-1.0827
-0.649497
-0.216361
-21.981
-21.9502
-21.704
-21.3275
-20.8756
-20.3766
-19.8416
-19.2712
-18.661
-18.0043
-17.2958
-16.5345
-15.7257
-14.8814
-14.0162
-13.1444
-12.2803
-11.4389
-10.6361
-9.88496
-9.19111
-8.55286
-7.96368
-7.41507
-6.89837
-6.40589
-5.93129
-5.46958
-5.017
-4.5708
-4.12899
-3.69018
-3.2534
-2.81797
-2.38343
-1.94949
-1.51592
-1.0826
-0.649424
-0.216331
-22.022
-21.9605
-21.7199
-21.3557
-20.9121
-20.4163
-19.8806
-19.3072
-18.6926
-18.0308
-17.3173
-16.5515
-15.7386
-14.8895
-14.0183
-13.1404
-12.2714
-11.4275
-10.6237
-9.87169
-9.17695
-8.53819
-7.94934
-7.4019
-6.88695
-6.39647
-5.92382
-5.46383
-5.01268
-4.56761
-4.12667
-3.68851
-3.25221
-2.81712
-2.38283
-1.94906
-1.51562
-1.08239
-0.649297
-0.216298
-22.1052
-22.0267
-21.7977
-21.4418
-20.9995
-20.5009
-19.9617
-19.3855
-18.7685
-18.1033
-17.3839
-16.6086
-15.7824
-14.917
-14.0277
-13.1311
-12.2447
-11.3859
-10.5716
-9.81423
-9.11934
-8.48478
-7.90295
-7.36373
-6.85691
-6.37365
-5.90694
-5.45162
-5.00398
-4.56149
-4.12241
-3.68557
-3.25018
-2.81574
-2.3819
-1.94843
-1.51519
-1.08209
-0.649095
-0.216218
-22.0879
-22.0205
-21.7693
-21.4053
-20.986
-20.5479
-20.1109
-19.6838
-19.2656
-18.8372
-18.3312
-17.5704
-16.2681
-15.0795
-14.1427
-13.2173
-12.298
-11.0209
-9.62734
-8.81188
-8.2861
-7.86236
-7.46375
-7.06438
-6.65762
-6.24329
-5.82294
-5.39826
-4.97061
-4.541
-4.11013
-3.67844
-3.24623
-2.81372
-2.38102
-1.94821
-1.51535
-1.08246
-0.649573
-0.216692
-22.042
-21.9833
-21.7393
-21.3804
-20.9636
-20.525
-20.084
-19.6488
-19.219
-18.7778
-18.265
-17.5142
-16.2347
-15.0584
-14.1281
-13.2026
-12.2868
-11.035
-9.67784
-8.87922
-8.34912
-7.91238
-7.50029
-7.08992
-6.67504
-6.25498
-5.83069
-5.40333
-4.97389
-4.54309
-4.11142
-3.67922
-3.2467
-2.81398
-2.38115
-1.94827
-1.51536
-1.08245
-0.649551
-0.216658
-21.9552
-21.913
-21.6821
-21.3326
-20.9204
-20.4805
-20.031
-19.579
-19.1233
-18.6492
-18.1088
-17.3685
-16.1611
-15.0406
-14.1084
-13.1783
-12.2662
-11.0794
-9.81446
-9.03733
-8.48358
-8.01334
-7.57196
-7.13943
-6.70871
-6.27765
-5.84582
-5.41335
-4.98047
-4.54736
-4.11417
-3.68096
-3.24778
-2.81463
-2.38154
-1.94849
-1.51547
-1.08249
-0.649545
-0.216614
-21.8419
-21.8205
-21.6068
-21.2699
-20.864
-20.4225
-19.9618
-19.4871
-18.9942
-18.466
-17.8605
-17.0905
-16.0596
-15.0312
-14.0905
-13.1606
-12.2223
-11.1566
-10.0868
-9.29051
-8.67488
-8.14924
-7.66621
-7.20396
-6.75249
-6.30712
-5.86551
-5.4264
-4.98905
-4.55295
-4.11777
-3.68325
-3.24921
-2.81552
-2.38207
-1.94879
-1.51563
-1.08256
-0.649544
-0.216559
-21.7226
-21.7218
-21.5263
-21.2034
-20.805
-20.3625
-19.8908
-19.3935
-18.8646
-18.2886
-17.6353
-16.8612
-15.9455
-14.9968
-14.0705
-13.1491
-12.2187
-11.2494
-10.3102
-9.51975
-8.8602
-8.28592
-7.76294
-7.27089
-6.79814
-6.33789
-5.88605
-5.43998
-4.99793
-4.55871
-4.12146
-3.68559
-3.25067
-2.81641
-2.3826
-1.94909
-1.51579
-1.08262
-0.649537
-0.216498
-21.6227
-21.6358
-21.4555
-21.1459
-20.7555
-20.3132
-19.8328
-19.3171
-18.7609
-18.1522
-17.4729
-16.705
-15.8494
-14.953
-14.0494
-13.1436
-12.2357
-11.3283
-10.4608
-9.68506
-9.0039
-8.39739
-7.84422
-7.32799
-6.83725
-6.36419
-5.90346
-5.45136
-5.00528
-4.5634
-4.12441