# vtk DataFile Version 2.0
I need something to put here
ASCII

DATASET STRUCTURED_GRID
DIMENSIONS 41 11 21
POINTS 9471 float
0.000000 0.000000 0.000000
0.100000 0.000000 0.000000
0.200000 0.000000 0.000000
0.300000 0.000000 0.000000
0.400000 0.000000 0.000000
0.500000 0.000000 0.000000
0.600000 0.000000 0.000000
0.700000 0.000000 0.000000
0.800000 0.000000 0.000000
0.900000 0.000000 0.000000
1.000000 0.000000 0.000000
1.100000 0.000000 0.000000
1.200000 0.000000 0.000000
1.300000 0.000000 0.000000
1.400000 0.000000 0.000000
1.500000 0.000000 0.000000
1.600000 0.000000 0.000000
1.700000 0.000000 0.000000
1.800000 0.000000 0.000000
1.900000 0.000000 0.000000
2.000000 0.000000 0.000000
2.100000 0.000000 0.000000
2.200000 0.000000 0.000000
2.300000 0.000000 0.000000
2.400000 0.000000 0.000000
2.500000 0.000000 0.000000
2.600000 0.000000 0.000000
2.700000 0.000000 0.000000
2.800000 0.000000 0.000000
2.900000 0.000000 0.000000
3.000000 0.000000 0.000000
3.100000 0.000000 0.000000
3.200000 0.000000 0.000000
3.300000 0.000000 0.000000
3.400000 0.000000 0.000000
3.500000 0.000000 0.000000
3.600000 0.000000 0.000000
3.700000 0.000000 0.000000
3.800000 0.000000 0.000000
3.900000 0.000000 0.000000
4.000000 0.000000 0.000000
0.000000 0.100000 0.000000
0.100000 0.100000 0.000000
0.200000 0.100000 0.000000
0.300000 0.100000 0.000000
0.400000 0.100000 0.000000
0.500000 0.100000 0.000000
0.600000 0.100000 0.000000
0.700000 0.100000 0.000000
0.800000 0.100000 0.000000
0.900000 0.100000 0.000000
1.000000 0.100000 0.000000
1.100000 0.100000 0.000000
1.200000 0.100000 0.000000
1.300000 0.100000 0.000000
1.400000 0.100000 0.000000
1.500000 0.100000 0.000000
1.600000 0.100000 0.000000
1.700000 0.100000 0.000000
1.800000 0.100000 0.000000
1.900000 0.100000 0.000000
2.000000 0.100000 0.000000
2.100000 0.100000 0.000000
2.200000 0.100000 0.000000
2.300000 0.100000 0.000000
2.400000 0.100000 0.000000
2.500000 0.100000 0.000000
2.600000 0.100000 0.000000
2.700000 0.100000 0.000000
2.800000 0.100000 0.000000
2.900000 0.100000 0.000000
3.000000 0.100000 0.000000
3.100000 0.100000 0.000000
3.200000 0.100000 0.000000
3.300000 0.100000 0.000000
3.400000 0.100000 0.000000
3.500000 0.100000 0.000000
3.600000 0.100000 0.000000
3.700000 0.100000 0.000000
3.800000 0.100000 0.000000
3.900000 0.100000 0.000000
4.000000 0.100000 0.000000
0.000000 0.200000 0.000000
0.100000 0.200000 0.000000
0.200000 0.200000 0.000000
0.300000 0.200000 0.000000
0.400000 0.200000 0.000000
0.500000 0.200000 0.000000
0.600000 0.200000 0.000000
0.700000 0.200000 0.000000
0.800000 0.200000 0.000000
0.900000 0.200000 0.000000
1.000000 0.200000 0.000000
1.100000 0.200000 0.000000
1.200000 0.200000 0.000000
1.300000 0.200000 0.000000
1.400000 0.200000 0.000000
1.500000 0.200000 0.000000
1.600000 0.200000 0.000000
1.700000 0.200000 0.000000
1.800000 0.200000 0.000000
1.900000 0.200000 0.000000
2.000000 0.200000 0.000000
2.100000 0.200000 0.000000
2.200000 0.200000 0.000000
2.300000 0.200000 0.000000
2.400000 0.200000 0.000000
2.500000 0.200000 0.000000
2.600000 0.200000 0.000000
2.700000 0.200000 0.000000
2.800000 0.200000 0.000000
2.900000 0.200000 0.000000
3.000000 0.200000 0.000000
3.100000 0.200000 0.000000
3.200000 0.200000 0.000000
3.300000 0.200000 0.000000
3.400000 0.200000 0.000000
3.500000 0.200000 0.000000
3.600000 0.200000 0.000000
3.700000 0.200000 0.000000
3.800000 0.200000 0.000000
3.900000 0.200000 0.000000
4.000000 0.200000 0.000000
0.000000 0.300000 0.000000
0.100000 0.300000 0.000000
0.200000 0.300000 0.000000
0.300000 0.300000 0.000000
0.400000 0.300000 0.000000
0.500000 0.300000 0.000000
0.600000 0.300000 0.000000
0.700000 0.300000 0.000000
0.800000 0.300000 0.000000
0.900000 0.300000 0.000000
1.000000 0.300000 0.000000
1.100000 0.300000 0.000000
1.200000 0.300000 0.000000
1.300000 0.300000 0.000000
1.400000 0.300000 0.000000
1.500000 0.300000 0.000000
1.600000 0.300000 0.000000
1.700000 0.300000 0.000000
1.800000 0.300000 0.000000
1.900000 0.300000 0.000000
2.000000 0.300000 0.000000
2.100000 0.300000 0.000000
2.200000 0.300000 0.000000
2.300000 0.300000 0.000000
2.400000 0.300000 0.000000
2.500000 0.300000 0.000000
2.600000 0.300000 0.000000
2.700000 0.300000 0.000000
2.800000 0.300000 0.000000
2.900000 0.300000 0.000000
3.000000 0.300000 0.000000
3.100000 0.300000 0.000000
3.200000 0.300000 0.000000
3.300000 0.300000 0.000000
3.400000 0.300000 0.000000
3.500000 0.300000 0.000000
3.600000 0.300000 0.000000
3.700000 0.300000 0.000000
3.800000 0.300000 0.000000
3.900000 0.300000 0.000000
4.000000 0.300000 0.000000
0.000000 0.400000 0.000000
0.100000 0.400000 0.000000
0.200000 0.400000 0.000000
0.300000 0.400000 0.000000
0.400000 0.400000 0.000000
0.500000 0.400000 0.000000
0.600000 0.400000 0.000000
0.700000 0.400000 0.000000
0.800000 0.400000 0.000000
0.900000 0.400000 0.000000
1.000000 0.400000 0.000000
1.100000 0.400000 0.000000
1.200000 0.400000 0.000000
1.300000 0.400000 0.000000
1.400000 0.400000 0.000000
1.500000 0.400000 0.000000
1.600000 0.400000 0.000000
1.700000 0.400000 0.000000
1.800000 0.400000 0.000000
1.900000 0.400000 0.000000
2.000000 0.400000 0.000000
2.100000 0.400000 0.000000
2.200000 0.400000 0.000000
2.300000 0.400000 0.000000
2.400000 0.400000 0.000000
2.500000 0.400000 0.000000
2.600000 0.400000 0.000000
2.700000 0.400000 0.000000
2.800000 0.400000 0.000000
2.900000 0.400000 0.000000
3.000000 0.400000 0.000000
3.100000 0.400000 0.000000
3.200000 0.400000 0.000000
3.300000 0.400000 0.000000
3.400000 0.400000 0.000000
3.500000 0.400000 0.000000
3.600000 0.400000 0.000000
3.700000 0.400000 0.000000
3.800000 0.400000 0.000000
3.900000 0.400000 0.000000
4.000000 0.400000 0.000000
0.000000 0.500000 0.000000
0.100000 0.500000 0.000000
0.200000 0.500000 0.000000
0.300000 0.500000 0.000000
0.400000 0.500000 0.000000
0.500000 0.500000 0.000000
0.600000 0.500000 0.000000
0.700000 0.500000 0.000000
0.800000 0.500000 0.000000
0.900000 0.500000 0.000000
1.000000 0.500000 0.000000
1.100000 0.500000 0.000000
1.200000 0.500000 0.000000
1.300000 0.500000 0.000000
1.400000 0.500000 0.000000
1.500000 0.500000 0.000000
1.600000 0.500000 0.000000
1.700000 0.500000 0.000000
1.800000 0.500000 0.000000
1.900000 0.500000 0.000000
2.000000 0.500000 0.000000
2.100000 0.500000 0.000000
2.200000 0.500000 0.000000
2.300000 0.500000 0.000000
2.400000 0.500000 0.000000
2.500000 0.500000 0.000000
2.600000 0.500000 0.000000
2.700000 0.500000 0.000000
2.800000 0.500000 0.000000
2.900000 0.500000 0.000000
3.000000 0.500000 0.000000
3.100000 0.500000 0.000000
3.200000 0.500000 0.000000
3.300000 0.500000 0.000000
3.400000 0.500000 0.000000
3.500000 0.500000 0.000000
3.600000 0.500000 0.000000
3.700000 0.500000 0.000000
3.800000 0.500000 0.000000
3.900000 0.500000 0.000000
4.000000 0.500000 0.000000
0.000000 0.600000 0.000000
0.100000 0.600000 0.000000
0.200000 0.600000 0.000000
0.300000 0.600000 0.000000
0.400000 0.600000 0.000000
0.500000 0.600000 0.000000
0.600000 0.600000 0.000000
0.700000 0.600000 0.000000
0.800000 0.600000 0.000000
0.900000 0.600000 0.000000
1.000000 0.600000 0.000000
1.100000 0.600000 0.000000
1.200000 0.600000 0.000000
1.300000 0.600000 0.000000
1.400000 0.600000 0.000000
1.500000 0.600000 0.000000
1.600000 0.600000 0.000000
1.700000 0.600000 0.000000
1.800000 0.600000 0.000000
1.900000 0.600000 0.000000
2.000000 0.600000 0.000000
2.100000 0.600000 0.000000
2.200000 0.600000 0.000000
2.300000 0.600000 0.000000
2.400000 0.600000 0.000000
2.500000 0.600000 0.000000
2.600000 0.600000 0.000000
2.700000 0.600000 0.000000
2.800000 0.600000 0.000000
2.900000 0.600000 0.000000
3.000000 0.600000 0.000000
3.100000 0.600000 0.000000
3.200000 0.600000 0.000000
3.300000 0.600000 0.000000
3.400000 0.600000 0.000000
3.500000 0.600000 0.000000
3.600000 0.600000 0.000000
3.700000 0.600000 0.000000
3.800000 0.600000 0.000000
3.900000 0.600000 0.000000
4.000000 0.600000 0.000000
0.000000 0.700000 0.000000
0.100000 0.700000 0.000000
0.200000 0.700000 0.000000
0.300000 0.700000 0.000000
0.400000 0.700000 0.000000
0.500000 0.700000 0.000000
0.600000 0.700000 0.000000
0.700000 0.700000 0.000000
0.800000 0.700000 0.000000
0.900000 0.700000 0.000000
1.000000 0.700000 0.000000
1.100000 0.700000 0.000000
1.200000 0.700000 0.000000
1.300000 0.700000 0.000000
1.400000 0.700000 0.000000
1.500000 0.700000 0.000000
1.600000 0.700000 0.000000
1.700000 0.700000 0.000000
1.800000 0.700000 0.000000
1.900000 0.700000 0.000000
2.000000 0.700000 0.000000
2.100000 0.700000 0.000000
2.200000 0.700000 0.000000
2.300000 0.700000 0.000000
2.400000 0.700000 0.000000
2.500000 0.700000 0.000000
2.600000 0.700000 0.000000
2.700000 0.700000 0.000000
2.800000 0.700000 0.000000
2.900000 0.700000 0.000000
3.000000 0.700000 0.000000
3.100000 0.700000 0.000000
3.200000 0.700000 0.000000
3.300000 0.700000 0.000000
3.400000 0.700000 0.000000
3.500000 0.700000 0.000000
3.600000 0.700000 0.000000
3.700000 0.700000 0.000000
3.800000 0.700000 0.000000
3.900000 0.700000 0.000000
4.000000 0.700000 0.000000
0.000000 0.800000 0.000000
0.100000 0.800000 0.000000
0.200000 0.800000 0.000000
0.300000 0.800000 0.000000
0.400000 0.800000 0.000000
0.500000 0.800000 0.000000
0.600000 0.800000 0.000000
0.700000 0.800000 0.000000
0.800000 0.800000 0.000000
0.900000 0.800000 0.000000
1.000000 0.800000 0.000000
1.100000 0.800000 0.000000
1.200000 0.800000 0.000000
1.300000 0.800000 0.000000
1.400000 0.800000 0.000000
1.500000 0.800000 0.000000
1.600000 0.800000 0.000000
1.700000 0.800000 0.000000
1.800000 0.800000 0.000000
1.900000 0.800000 0.000000
2.000000 0.800000 0.000000
2.100000 0.800000 0.000000
2.200000 0.800000 0.000000
2.300000 0.800000 0.000000
2.400000 0.800000 0.000000
2.500000 0.800000 0.000000
2.600000 0.800000 0.000000
2.700000 0.800000 0.000000
2.800000 0.800000 0.000000
2.900000 0.800000 0.000000
3.000000 0.800000 0.000000
3.100000 0.800000 0.000000
3.200000 0.800000 0.000000
3.300000 0.800000 0.000000
3.400000 0.800000 0.000000
3.500000 0.800000 0.000000
3.600000 0.800000 0.000000
[...]
CELL_DATA 8000
SCALARS pressure float 1
LOOKUP_TABLE default
-23.6987
-22.1155
-20.9407
-20.0568
-19.3421
-18.7163
-18.1295
-17.5507
-16.9592
-16.342
-15.6916
-15.0056
-14.2865
-13.5411
-12.7793
-12.013
-11.2549
-10.5174
-9.81104
-9.14335
-8.51827
-7.9359
-7.39312
-6.88476
-6.40474
-5.94697
-5.506
-5.07731
-4.65733
-4.24339
-3.83356
-3.42646
-3.02117
-2.61703
-2.21363
-1.81069
-1.40803
-1.00556
-0.603219
-0.201002
-24.8824
-22.2896
-20.8785
-19.965
-19.2673
-18.6632
-18.0939
-17.5276
-16.9448
-16.3334
-15.6867
-15.0029
-14.2851
-13.5401
-12.7783
-12.0117
-11.2533
-10.5155
-9.8088
-9.14109
-8.51622
-7.93422
-7.3919
-6.88398
-6.40432
-5.94681
-5.50601
-5.07742
-4.65748
-4.24355
-3.83371
-3.42659
-3.02127
-2.61711
-2.21369
-1.81074
-1.40807
-1.00559
-0.603231
-0.200989
-26.5718
-22.7782
-20.9648
-19.9341
-19.215
-18.6187
-18.064
-17.5117
-16.9402
-16.3369
-15.695
-15.0127
-14.2936
-13.5454
-12.7789
-12.007
-11.2433
-10.5007
-9.79065
-9.12128
-8.49658
-7.91623
-7.37648
-6.87149
-6.39468
-5.93967
-5.50091
-5.07387
-4.65508
-4.24197
-3.83268
-3.42594
-3.02086
-2.61686
-2.21354
-1.81065
-1.40802
-1.00556
-0.603199
-0.200955
-28.3339
-23.4076
-21.1629
-19.9775
-19.21
-18.6057
-18.0575
-17.5157
-16.9544
-16.3586
-15.7204
-15.0376
-14.314
-13.5582
-12.7822
-11.9999
-11.2258
-10.4742
-9.75754
-9.08482
-8.46017
-7.88266
-7.34751
-6.84785
-6.37626
-5.92586
-5.49089
-5.0668
-4.65021
-4.23867
-3.83049
-3.4245
-3.01993
-2.61627
-2.21317
-1.81042
-1.40788
-1.00546
-0.60314
-0.200921
-29.9851
-24.0633
-21.4172
-20.073
-19.2465
-18.625
-18.077
-17.5421
-16.989
-16.3994
-15.7634
-15.0778
-14.3464
-13.5789
-12.7888
-11.9913
-11.2023
-10.4375
-9.7112
-9.03351
-8.4088
-7.83523
-7.30655
-6.81435
-6.35008
-5.90616
-5.47653
-5.05661
-4.64313
-4.23384
-3.82725
-3.42235
-3.01852
-2.61535
-2.21258
-1.81004
-1.40764
-1.00532
-0.60306
-0.200893
-31.437
-24.6769
-21.6831
-20.1942
-19.3093
-18.6674
-18.1166
-17.5865
-17.0401
-16.4557
-15.8206
-15.1301
-14.3882
-13.6059
-12.7983
-11.9821
-11.1748
-10.3938
-9.65537
-8.97146
-8.34663
-7.77788
-7.25705
-6.77389
-6.31845
-5.88233
-5.45911
-5.0442
-4.63447
-4.2279
-3.82323
-3.41967
-3.01675
-2.61419
-2.21183
-1.80956
-1.40734
-1.00514
-0.602969
-0.20087
-32.6405
-25.2063
-21.9287
-20.3184
-19.3823
-18.7214
-18.167
-17.6405
-17.0999
-16.5199
-15.8848
-15.1883
-14.4345
-13.6359
-12.8094
-11.9732
-11.1462
-10.3477
-9.59614
-8.90541
-8.28043
-7.71687
-7.20448
-6.73098
-6.28492
-5.85706
-5.44061
-5.03098
-4.62522
-4.22153
-3.8189
-3.41676
-3.01482
-2.61292
-2.211
-1.80903
-1.40701
-1.00495
-0.602873
-0.200853
-33.5658
-25.6243
-22.1315
-20.4277
-19.4512
-18.7749
-18.2176
-17.6941
-17.1584
-16.582
-15.9463
-15.2439
-14.4785
-13.6645
-12.8204
-11.9656
-11.1204
-10.3053
-9.54127
-8.84401
-8.21883
-7.66013
-7.15563
-6.69113
-6.2538
-5.83359
-5.42341
-5.01866
-4.61656
-4.21555
-3.81481
-3.414
-3.01296
-2.61168
-2.21018
-1.8085
-1.40668
-1.00475
-0.602779
-0.200839
-34.1933
-25.9131
-22.2758
-20.5088
-19.5048
-18.818
-18.2588
-17.7376
-17.2057
-16.6317
-15.9955
-15.2879
-14.5133
-13.687
-12.8292
-11.9602
-11.1007
-10.2728
-9.49873
-8.79617
-8.17071
-7.61576
-7.11742
-6.65996
-6.22943
-5.81518
-5.40989
-5.00894
-4.6097
-4.21077
-3.81152
-3.41175
-3.01144
-2.61066
-2.2095
-1.80805
-1.40639
-1.00458
-0.602694
-0.200826
-34.5112
-26.0615
-22.3518
-20.553
-19.5351
-18.8432
-18.2833
-17.7636
-17.2337
-16.6611
-16.0242
-15.3135
-14.5333
-13.7
-12.8345
-11.9575
-11.0901
-10.2547
-9.47485
-8.76908
-8.1433
-7.59039
-7.09551
-6.64202
-6.21535
-5.80448
-5.40196
-5.00319
-4.60559
-4.20786
-3.80948
-3.41032
-3.01044
-2.60997
-2.20903
-1.80773
-1.40618
-1.00445
-0.602629
-0.200817
-22.4943
-21.772
-20.8989
-20.098
-19.3941
-18.7597
-18.1619
-17.5739
-16.9758
-16.3539
-15.7003
-15.0119
-14.2909
-13.544
-12.7808
-12.0134
-11.2543
-10.5161
-9.80912
-9.14121
-8.51621
-7.93412
-7.39174
-6.8838
-6.40413
-5.94663
-5.50585
-5.07727
-4.65736
-4.24345
-3.83362
-3.42652
-3.02121
-2.61707
-2.21366
-1.81071
-1.40805
-1.00557
-0.603218
-0.200982
-22.8414
-21.8602
-20.8761
-20.0475
-19.3448
-18.7179
-18.1271
-17.5443
-16.9501
-16.3313
-15.6807
-14.9958
-14.2788
-13.5364
-12.778
-12.0154
-11.2609
-10.5264
-9.82233
-9.15609
-8.53154
-7.94884
-7.40506
-6.89526
-6.41357
-5.95413
-5.51162
-5.08159
-4.66052
-4.24572
-3.83523
-3.42765
-3.02199
-2.6176
-2.21402
-1.81096
-1.40823
-1.0057
-0.603302
-0.201004
-23.5451
-22.1985
-20.9947
-20.069
-19.3314
-18.6964
-18.1077
-17.5299
-16.9409
-16.3266
-15.6792
-14.996
-14.2797
-13.5369
-12.7775
-12.0135
-11.2575
-10.5216
-9.81657
-9.14998
-8.52574
-7.94385
-7.40113
-6.89239
-6.41165
-5.95294
-5.51096
-5.08128
-4.66043
-4.24575
-3.83531
-3.42775
-3.02209
-2.61769
-2.2141
-1.81102
-1.40827
-1.00573
-0.603321
-0.200993
-24.3831
-22.6637
-21.2085
-20.1543
-19.36
-18.7041
-18.1109
-17.5356
-16.9512
-16.341
-15.6958
-15.0124
-14.2931
-13.5455
-12.7799
-12.009
-11.2461
-10.5042
-9.79472
-9.12592
-8.50177
-7.92183
-7.38221
-6.87702
-6.39973
-5.94405
-5.50455
-5.07679
-4.65735
-4.24369
-3.83396
-3.42687
-3.02153
-2.61734
-2.21388
-1.81089
-1.4082
-1.00569
-0.603297
-0.200976
-25.2261
-23.1677
-21.4697
-20.2818
-19.4224
-18.7388
-18.1368
-17.5615
-16.9804
-16.3734
-15.7292
-15.0433
-14.3181
-13.5616
-12.7853
-12.0028
-11.2286
-10.4767
-9.75973
-9.08708
-8.46281
-7.88578
-7.35097
-6.85137
-6.37957
-5.9288
-5.49336
-5.06879
-4.65176
-4.23985
-3.83137
-3.42515
-3.0204
-2.6166
-2.21341
-1.8106
-1.40802
-1.00558
-0.603243
-0.200963
-26.0004
-23.6517
-21.7389
-20.4276
-19.5048
-18.792
-18.1794
-17.6029
-17.0243
-16.4199
-15.7756
-15.0856
-14.3519
-13.5834
-12.7933
-11.996
-11.2071
-10.4422
-9.7156
-9.03788
-8.41338
-7.84001
-7.31125
-6.81867
-6.35379
-5.90918
-5.47887
-5.05836
-4.64441
-4.23476
-3.82789
-3.4228
-3.01884
-2.61557
-2.21274
-1.81017
-1.40775
-1.00543
-0.603168
-0.200955
-26.6613
-24.0767
-21.9864
-20.5704
-19.5922
-18.853
-18.2303
-17.6523
-17.0757
-16.4735
-15.8285
-15.1333
-14.3898
-13.6081
-12.8027
-11.9892
-11.1844
-10.4053
-9.66781
-8.98445
-8.3597
-7.79034
-7.26818
-6.78322
-6.32581
-5.88785
-5.46307
-5.04693
-4.63631
-4.22911
-3.82401
-3.42017
-3.01706
-2.61439
-2.21196
-1.80966
-1.40743
-1.00524
-0.603081
-0.200949
-27.1796
-24.4164
-22.1903
-20.6932
-19.6713
-18.9109
-18.28
-17.7008
-17.1261
-16.5255
-15.8796
-15.1792
-14.4261
-13.6318
-12.8119
-11.9833
-11.1636
-10.3709
-9.62308
-8.93428
-8.30927
-7.74371
-7.22778
-6.74997
-6.29956
-5.86781
-5.44819
-5.03614
-4.62862
-4.22372
-3.82028
-3.41761
-3.01533
-2.61323
-2.21119
-1.80916
-1.40711
-1.00505
-0.602992
-0.200945
-27.536
-24.653
-22.3353
-20.7831
-19.7312
-18.9563
-18.3199
-17.74
-17.1668
-16.5674
-15.9205
-15.2157
-14.4548
-13.6505
-12.8193
-11.979
-11.1477
-10.3443
-9.58824
-8.89501
-8.26968
-7.70706
-7.19601
-6.72381
-6.27888
-5.85199
-5.43641
-5.02754
-4.62246
-4.21938
-3.81725
-3.41552
-3.0139
-2.61225
-2.21053
-1.80872
-1.40683
-1.00488
-0.60291
-0.20094
-27.7184
-24.7752
-22.4115
-20.8315
-19.7645
-18.9824
-18.3433
-17.7633
-17.191
-16.5922
-15.9445
-15.237
-14.4714
-13.6612
-12.8237
-11.9769
-11.1391
-10.3296
-9.56859
-8.87266
-8.24703
-7.686
-7.17768
-6.70866
-6.26684
-5.84272
-5.42944
-5.02241
-4.61874
-4.2167
-3.81535
-3.41417
-3.01295
-2.61159
-2.21007
-1.80841
-1.40662
-1.00475
-0.602844
-0.200934
-21.5079
-21.1848
-20.6182
-19.9865
-19.3638
-18.7652
-18.182
-17.5995
-17.0029
-16.3805
-15.7248
-15.0328
-14.3071
-13.5543
-12.7848
-12.011
-11.2459
-10.5025
-9.79181
-9.12202
-8.49702
-7.91646
-7.37656
-6.87148
-6.3946
-5.93956
-5.50078
-5.07374
-4.65496
-4.24185
-3.83258
-3.42585
-3.02079
-2.6168
-2.21349
-1.81061
-1.40799
-1.00553
-0.603179
-0.200943
-21.5592
-21.1843
-20.5767
-19.9317
-19.3096
-18.7154
-18.1365
-17.5571
-16.963
-16.3433
-15.6913
-15.0045
-14.2855
-13.5408
-12.7802
-12.0153
-11.2588
-10.5226
-9.81729
-9.15054
-8.52619
-7.94421
-7.4014
-6.8926
-6.4118
-5.95304
-5.51103
-5.08133
-4.66046
-4.24576
-3.83532
-3.42775
-3.02209
-2.61769
-2.21409
-1.81102
-1.40827
-1.00573
-0.603317
-0.200989
-21.8098
-21.3485
-20.6498
-19.9497
-19.3013
-18.6972
-18.1163
-17.5383
-16.9469
-16.3302
-15.6811
-14.9969
-14.2802
-13.5375
-12.7787
-12.0155
-11.2602
-10.5251
-9.82061
-9.15457
-8.53083
-7.94925
-7.40656
-6.89756
-6.4163
-5.95693
-5.51424
-5.08389
-4.66243
-4.24725
-3.83642
-3.42855
-3.02267
-2.6181
-2.21438
-1.81122
-1.40842
-1.00583
-0.603378
-0.200991
-22.181
-21.6148
-20.8022
-20.0251
-19.3341
-18.71
-18.1218
-17.5432
-16.954
-16.3401
-15.6928
-15.0087
-14.2901
-13.544
-12.7809
-12.0128
-11.2526
-10.5129
-9.80509
-9.13756
-8.51425
-7.93455
-7.39447
-6.88821
-6.40942
-5.95208
-5.51095
-5.08173
-4.66106
-4.24641
-3.83592
-3.42826
-3.02251
-2.61802
-2.21435
-1.81122
-1.40842
-1.00585
-0.603389
-0.200987
-22.5994
-21.928
-20.9985
-20.138
-19.3977
-18.7484
-18.15
-17.5692
-16.9818
-16.3704
-15.724
-15.0377
-14.3135
-13.5594
-12.7867
-12.0084
-11.238
-10.489
-9.77407
-9.10312
-8.48014
-7.9036
-7.36823
-6.86712
-6.39318
-5.94001
-5.50223
-5.07559
-4.65682
-4.24353
-3.834
-3.427
-3.02169
-2.61749
-2.21402
-1.81101
-1.4083
-1.00578
-0.603362
-0.200988
-23.0119
-22.2449
-21.2077
-20.2678
-19.479
-18.8038
-18.1942
-17.6109
-17.0252
-16.4163
-15.7702
-15.08
-14.3472
-13.5815
-12.7955
-12.0032
-11.2186
-10.4566
-9.73172
-9.0559
-8.43334
-7.86107
-7.33204
-6.83785
-6.37044
-5.92291
-5.48972
-5.06663
-4.65054
-4.23919
-3.83104
-3.42501
-3.02036
-2.61662
-2.21345
-1.81065
-1.40808
-1.00566
-0.603309
-0.200995
-23.3812
-22.5334
-21.4045
-20.396
-19.5641
-18.8656
-18.2458
-17.6605
-17.0768
-16.4705
-15.8245
-15.1294
-14.3863
-13.607
-12.8059
-11.9978
-11.1974
-10.4204
-9.68376
-9.00232
-8.38038
-7.81311
-7.29131
-6.8049
-6.34478
-5.90354
-5.47547
-5.05637
-4.64327
-4.23413
-3.82756
-3.42264
-3.01877
-2.61556
-2.21275
-1.8102
-1.4078
-1.00549
-0.603239
-0.201005
-23.6805
-22.7697
-21.5694
-20.5068
-19.6407
-18.9235
-18.2958
-17.7092
-17.1276
-16.5239
-15.8778
-15.1778
-14.4242
-13.6315
-12.816
-11.993
-11.1775
-10.3861
-9.63769
-8.95071
-8.32944
-7.7671
-7.25232
-6.77339
-6.32024
-5.88498
-5.46176
-5.04645
-4.63622
-4.22918
-3.82413
-3.42029
-3.01717
-2.61448
-2.21203
-1.80973
-1.4075
-1.00532
-0.603161
-0.201014
-23.8911
-22.9371
-21.688
-20.5884
-19.6986
-18.9686
-18.3356
-17.7484
-17.1688
-16.5669
-15.9206
-15.2162
-14.454
-13.6507
-12.8239
-11.9894
-11.1623
-10.3594
-9.6016
-8.90996
-8.28905
-7.73055
-7.22131
-6.74832
-6.30069
-5.87016
-5.45078
-5.03846
-4.63049
-4.22514
-3.8213
-3.41832
-3.01581
-2.61355
-2.21141
-1.80931
-1.40723
-1.00516
-0.603087
-0.201019
-24.0007
-23.0248
-21.7509
-20.6325
-19.7309
-18.9944
-18.3589
-17.7717
-17.1932
-16.5924
-15.9458
-15.2385
-14.4709
-13.6613
-12.8283
-11.9877
-11.1542
-10.3448
-9.58127
-8.88669
-8.26578
-7.70939
-7.2033
-6.73369
-6.28922
-5.8614
-5.44423
-5.03364
-4.62699
-4.22261
-3.81949
-3.41704
-3.01491
-2.61291
-2.21096
-1.80901
-1.40703
-1.00503
-0.603025
-0.201019
-20.7744
-20.6154
-20.2546
-19.782
-19.2623
-18.7253
-18.178
-17.6163
-17.0315
-16.415
-15.7602
-15.0651
-14.3327
-13.5707
-12.7907
-12.0056
-11.2299
-10.4772
-9.75981
-9.0866
-8.46156
-7.88374
-7.34833
-6.84845
-6.37668
-5.92615
-5.49107
-5.06691
-4.65027
-4.2387
-3.83049
-3.42449
-3.01992
-2.61625
-2.21315
-1.8104
-1.40786
-1.00545
-0.603122
-0.200908
-20.7324
-20.577
-20.2005
-19.7202
-19.2001
-18.6653
-18.1204
-17.5605
-16.9775
-16.3636
-15.7133
-15.0252
-14.3022
-13.5517
-12.7842
-12.0121
-11.2484
-10.5061
-9.79638
-9.12741
-8.5031
-7.923
-7.3832
-6.87785
-6.4004
-5.94458
-5.50496
-5.07711
-4.65759
-4.24387
-3.83409
-3.42697
-3.02161
-2.6174
-2.21392
-1.81092
-1.40822
-1.0057
-0.603299
-0.200973
-20.7863
-20.6332
-20.2269
-19.7203
-19.1842
-18.6419
-18.0947
-17.5352
-16.9543
-16.3433
-15.6965
-15.0119
-14.2926
-13.5458
-12.7822
-12.0139
-11.2535
-10.5138
-9.80596
-9.13843
-8.5151
-7.93535
-7.39519
-6.88883
-6.40994
-5.95251
-5.5113
-5.082
-4.66127
-4.24658
-3.83605
-3.42836
-3.02259
-2.61808
-2.2144
-1.81125
-1.40845
-1.00586
-0.603396
-0.200988
-20.931
-20.7639
-20.3149
-19.7694
-19.2074
-18.651
-18.0981
-17.5382
-16.9597
-16.352
-15.7077
-15.0236
-14.3026
-13.5527
-12.7853
-12.0126
-11.2477
-10.5033
-9.79192
-9.1231
-8.50083
-7.92363
-7.38652
-6.88298
-6.40634
-5.95051
-5.51034
-5.08167
-4.66128
-4.24675
-3.83627
-3.42859
-3.02279
-2.61824
-2.21453
-1.81136
-1.40853
-1.00593
-0.603439
-0.200997
-21.1325
-20.9405
-20.4423
-19.8523
-19.2596
-18.6859
-18.1258
-17.5653
-16.9899
-16.3863
-15.7441
-15.0581
-14.3304
-13.5712
-12.7933
-12.0095
-11.2331
-10.4776
-9.75739
-9.0848
-8.46389
-7.89143
-7.36045
-6.86301
-6.39167
-5.9401
-5.50314
-5.07681
-4.65806
-4.24465
-3.83493
-3.42774
-3.02225
-2.61792
-2.21434
-1.81125
-1.40848
-1.00591
-0.60344
-0.201013
-21.3559
-21.1345
-20.587
-19.9528
-19.3292
-18.7378
-18.1704
-17.6101
-17.0391
-16.4408
-15.8011
-15.1113
-14.3725
-13.5989
-12.8053
-12.0055
-11.2123
-10.4402
-9.70627
-9.02799
-8.40924
-7.84375
-7.32158
-6.83282
-6.36907
-5.92365
-5.49145
-5.06865
-4.65246
-4.24085
-3.83239
-3.42605
-3.02115
-2.6172
-2.21388
-1.81096
-1.40831
-1.00582
-0.603411
-0.201035
-21.5714
-21.321
-20.729
-20.0551
-19.4036
-18.7964
-18.2231
-17.6641
-17.0988
-16.5071
-15.8709
-15.1764
-14.4229
-13.6314
-12.8196
-12.0012
-11.1887
-10.3964
-9.64485
-8.95987
-8.34439
-7.7877
-7.27611
-6.79753
-6.34255
-5.90422
-5.47751
-5.05881
-4.64562
-4.23615
-3.82919
-3.42389
-3.01971
-2.61625
-2.21326
-1.81056
-1.40806
-1.00568
-0.603359
-0.20106
-21.755
-21.4796
-20.8514
-20.1454
-19.4715
-18.8518
-18.2744
-17.7175
-17.1582
-16.5735
-15.9411
-15.2418
-14.4723
-13.6627
-12.8332
-11.9973
-11.1662
-10.354
-9.5835
-8.89188
-8.28016
-7.73257
-7.23161
-6.76307
-6.31665
-5.8852
-5.46379
-5.04908
-4.63879
-4.23141
-3.82593
-3.42168
-3.01821
-2.61524
-2.21259
-1.81013
-1.40779
-1.00552
-0.603296
-0.201083
-21.8885
-21.5949
-20.9413
-20.2129
-19.5235
-18.8953
-18.3154
-17.7607
-17.2063
-16.6272
-15.997
-15.2928
-14.5103
-13.6863
-12.8432
-11.9942
-11.1492
-10.3212
-9.53589
-8.83818
-8.22885
-7.68833
-7.19583
-6.73534
-6.29579
-5.86984
-5.45267
-5.04113
-4.63317
-4.22748
-3.8232
-3.41979
-3.01692
-2.61436
-2.21199
-1.80973
-1.40753
-1.00537
-0.603232
-0.201099
-21.9597
-21.6564
-20.9897
-20.25
-19.5527
-18.9204
-18.3395
-17.7864
-17.2351
-16.6589
-16.0297
-15.322
-14.5311
-13.6982
-12.8483
-11.993
-11.141
-10.3039
-9.50948
-8.80764
-8.19926
-7.66261
-7.17493
-6.71906
-6.28348
-5.8607
-5.44599
-5.03629
-4.62971
-4.22501
-3.82145
-3.41855
-3.01604
-2.61374
-2.21156
-1.80943
-1.40733
-1.00525
-0.603175
-0.201105
-20.2413
-20.145
-19.9047
-19.5515
-19.1262
-18.6565
-18.1553
-17.6243
-17.0595
-16.4544
-15.8037
-15.1062
-14.3658
-13.592
-12.7977
-11.9976
-11.2071
-10.4415
-9.71469
-9.03666
-8.41161
-7.83768
-7.3086
-6.81603
-6.35141
-5.9072
-5.47732
-5.0572
-4.64357
-4.23417
-3.82749
-3.42253
-3.01866
-2.61545
-2.21265
-1.81009
-1.40767
-1.00533
-0.603058
-0.200883
-20.1764
-20.0964
-19.8478
-19.4872
-19.0588
-18.5885
-18.0872
-17.5563
-16.992
-16.3892
-15.7437
-15.0548
-14.3265
-13.5675
-12.7895
-12.0061
-11.2314
-10.4794
-9.76244
-9.08979
-8.46544
-7.88823
-7.35315
-6.85325
-6.38114
-5.93008
-5.49438
-5.0696
-4.6524
-4.24035
-3.83175
-3.42544
-3.02063
-2.61678
-2.21354
-1.81069
-1.40808
-1.00562
-0.603261
-0.200964
-20.1482
-20.0965
-19.8432
-19.471
-19.0335
-18.5581
-18.055
-17.5247
-16.9628
-16.3635
-15.7224
-15.038
-14.3143
-13.5602
-12.7876
-12.0094
-11.2392
-10.4905
-9.77591
-9.10516
-8.48225
-7.90565
-7.37011
-6.86878
-6.3946
-5.94119
-5.5032
-5.07636
-4.65744
-4.24402
-3.83438
-3.4273
-3.02193
-2.61768
-2.21416
-1.81112
-1.40838
-1.00583
-0.603387
-0.200993
-20.1847
-20.1482
-19.8843
-19.4953
-19.0441
-18.5608
-18.0551
-17.5263
-16.9688
-16.3749
-15.7379
-15.0545
-14.3282
-13.5699
-12.7925
-12.0093
-11.2333
-10.4782
-9.75836
-9.08598
-8.46516
-7.89269
-7.36163
-6.86405
-6.39257
-5.94085
-5.50376
-5.07731
-4.65847
-4.24497
-3.83518
-3.42794
-3.02241
-2.61804
-2.21443
-1.81132
-1.40853
-1.00594
-0.603459
-0.201017
-20.276
-20.2409
-19.9596
-19.5497
-19.0823
-18.5898
-18.0818
-17.5565
-17.006
-16.4201
-15.7883
-15.1031
-14.3669
-13.5954
-12.8044
-12.0072
-11.2161
-10.4451
-9.71165
-9.03438
-8.41706
-7.85272
-7.33097
-6.84187
-6.37721
-5.93058
-5.4971
-5.0731
-4.65586
-4.24339
-3.83425
-3.4274
-3.02211
-2.61788
-2.21436
-1.81129
-1.40853
-1.00596
-0.603487
-0.201047
-20.4003
-20.3569
-20.0544
-19.6222
-19.138
-18.6366
-18.1276
-17.6079
-17.0679
-16.4941
-15.8704
-15.1818
-14.4271
-13.6341
-12.8222
-12.0043
-11.1907
-10.3946
-9.63767
-8.95305
-8.34219
-7.79081
-7.28314
-6.80657
-6.352
-5.91302
-5.4851
-5.06503
-4.65051
-4.23988
-3.83197
-3.42593
-3.02118
-2.61729
-2.21399
-1.81107
-1.40841
-1.0059
-0.60348
-0.201085
-20.5342
-20.4776
-20.1533
-19.6999
-19.2004
-18.6915
-18.183
-17.6711
-17.1447
-16.5873
-15.976
-15.2841
-14.5013
-13.6802
-12.8433
-12.0012
-11.1613
-10.3333
-9.54166
-8.84909
-8.24909
-7.71543
-7.22556
-6.76419
-6.3216
-5.89163
-5.47029
-5.0549
-4.64365
-4.23528
-3.8289
-3.4239
-3.01984
-2.61642
-2.21343
-1.81072
-1.4082
-1.00579
-0.603447
-0.201125
-20.6563
-20.5856
-20.2421
-19.7708
-19.2589
-18.7445
-18.2377
-17.7344
-17.2224
-16.6828
-16.0863
-15.3925
-14.5746
-13.7244
-12.8632
-11.9985
-11.1336
-10.2734
-9.4394
-8.74028
-8.15384
-7.63955
-7.16818
-6.72216
-6.29147
-5.87037
-5.45547
-5.04467
-4.63665
-4.23053
-3.8257
-3.42175
-3.01841
-2.61547
-2.21281
-1.81032
-1.40795
-1.00565
-0.603399
-0.201162
-20.749
-20.6669
-20.3091
-19.8251
-19.3045
-18.7867
-18.2819
-17.7858
-17.2854
-16.7592
-16.1718
-15.4722
-14.6283
-13.7554
-12.8762
-11.9957
-11.1128
-10.2283
-9.36423
-8.65643
-8.0782
-7.57847
-7.12176
-6.6881
-6.26701
-5.85306
-5.44334
-5.03624
-4.63084
-4.22653
-3.82297
-3.41989
-3.01714
-2.61462
-2.21223
-1.80994
-1.4077
-1.00551
-0.603345
-0.201188
-20.8
-20.7115
-20.3461
-19.8555
-19.3306
-18.8113
-18.3081
-17.8165
-17.3229
-16.8041
-16.221
-15.5165
-14.6557
-13.7686
-12.8818
-11.9955
-11.1054
-10.2064
-9.32388
-8.60952
-8.03485
-7.543
-7.0946
-6.66806
-6.25254
-5.84274
-5.43604
-5.0311
-4.62723
-4.22401
-3.8212
-3.41865
-3.01627
-2.61401
-2.21181
-1.80965
-1.40751
-1.0054
-0.603294
-0.201199
-19.8583
-19.7836
-19.6102
-19.338
-18.9876
-18.579
-18.1244
-17.6278
-17.087
-16.4968
-15.8524
-15.1529
-14.4037
-13.6162
-12.8054
-11.9875
-11.1795
-10.3985
-9.6602
-8.97636
-8.35137
-7.78224
-7.26088
-6.77713
-6.32111
-5.88446
-5.46079
-5.04551
-4.63548
-4.22869
-3.82384
-3.42014
-3.01711
-2.61446
-2.21203
-1.80971
-1.40744
-1.0052
-0.602993
-0.200868
-19.7932
-19.7355
-19.5551
-19.2741
-18.9176
-18.5051
-18.0476
-17.5487
-17.0068
-16.4181
-15.7793
-15.0901
-14.3556
-13.5862
-12.7955
-11.9982
-11.2098
-10.4455
-9.71944
-9.04212
-8.41775
-7.84421
-7.31508
-6.82202
-6.35663
-5.91152
-5.48077
-5.05988
-4.64561
-4.23571
-3.82864
-3.42339
-3.01929
-2.61593
-2.21301
-1.81036
-1.40789
-1.00552
-0.603213
-0.200963
-19.7334
-19.7092
-19.5331
-19.247
-18.8848
-18.4687
-18.0099
-17.5119
-16.9731
-16.3891
-15.7558
-15.072
-14.3425
-13.5786
-12.794
-12.0028
-11.2195
-10.4586
-9.73465
-9.05945
-8.43716
-7.86485
-7.33555
-6.84096
-6.37311
-5.92514
-5.49155
-5.06811
-4.65172
-4.24014
-3.8318
-3.4256
-3.02083
-2.61698
-2.21373
-1.81086
-1.40823
-1.00575
-0.603362
-0.201006
-19.7197
-19.7186
-19.5449
-19.2531
-18.8848
-18.4655
-18.0074
-17.514
-16.9827
-16.4073
-15.7808
-15.0983
-14.3638
-13.593
-12.8016
-12.0036
-11.212
-10.4413
-9.70841
-9.0308
-8.41234
-7.84683
-7.32444
-6.83536
-6.37124
-5.92546
-5.49294
-5.06986
-4.65344
-4.24163
-3.83301
-3.42655
-3.02154
-2.61751
-2.21411
-1.81114
-1.40843
-1.0059
-0.603457
-0.201046
-19.7557
-19.7634
-19.5861
-19.2863
-18.9112
-18.4895
-18.0346
-17.5499
-17.0318
-16.4713
-15.8554
-15.1715
-14.4198
-13.6289
-12.8188
-12.0023
-11.1901
-10.3951
-9.63901
-8.95486
-8.34418
-7.79275
-7.2849
-6.80811
-6.3533
-5.9141
-5.48599
-5.06575
-4.65109
-4.24035
-3.83234
-3.42623
-3.02141
-2.61747
-2.21413
-1.81118
-1.40848
-1.00595
-0.603509
-0.201092
-19.8287
-19.8335
-19.6473
-19.3376
-18.9557
-18.5327
-18.0836
-17.6122
-17.1143
-16.5781
-15.9821
-15.2968
-14.5084
-13.6831
-12.844
-12.0004
-11.1574
-10.3229
-9.52072
-8.82816
-8.23409
-7.70699
-7.22217
-6.76402
-6.32319
-5.89397
-5.47276
-5.05719
-4.64561
-4.23688