# vtk DataFile Version 2.0
I need something to put here
ASCII

DATASET STRUCTURED_GRID
DIMENSIONS 15 11 21
POINTS 3465 float
0.000000 0.000000 0.000000
0.100000 0.000000 0.000000
0.200000 0.000000 0.000000
0.300000 0.000000 0.000000
0.400000 0.000000 0.000000
0.500000 0.000000 0.000000
0.600000 0.000000 0.000000
0.700000 0.000000 0.000000
0.800000 0.000000 0.000000
0.900000 0.000000 0.000000
1.000000 0.000000 0.000000
1.100000 0.000000 0.000000
1.200000 0.000000 0.000000
1.300000 0.000000 0.000000
1.400000 0.000000 0.000000
0.000000 0.100000 0.000000
0.100000 0.100000 0.000000
0.200000 0.100000 0.000000
0.300000 0.100000 0.000000
0.400000 0.100000 0.000000
0.500000 0.100000 0.000000
0.600000 0.100000 0.000000
0.700000 0.100000 0.000000
0.800000 0.100000 0.000000
0.900000 0.100000 0.000000
1.000000 0.100000 0.000000
1.100000 0.100000 0.000000
1.200000 0.100000 0.000000
1.300000 0.100000 0.000000
1.400000 0.100000 0.000000
0.000000 0.200000 0.000000
0.100000 0.200000 0.000000
0.200000 0.200000 0.000000
0.300000 0.200000 0.000000
0.400000 0.200000 0.000000
0.500000 0.200000 0.000000
0.600000 0.200000 0.000000
0.700000 0.200000 0.000000
0.800000 0.200000 0.000000
0.900000 0.200000 0.000000
1.000000 0.200000 0.000000
1.100000 0.200000 0.000000
1.200000 0.200000 0.000000
1.300000 0.200000 0.000000
1.400000 0.200000 0.000000
0.000000 0.300000 0.000000
0.100000 0.300000 0.000000
0.200000 0.300000 0.000000
0.300000 0.300000 0.000000
0.400000 0.300000 0.000000
0.500000 0.300000 0.000000
0.600000 0.300000 0.000000
0.700000 0.300000 0.000000
0.800000 0.300000 0.000000
0.900000 0.300000 0.000000
1.000000 0.300000 0.000000
1.100000 0.300000 0.000000
1.200000 0.300000 0.000000
1.300000 0.300000 0.000000
1.400000 0.300000 0.000000
0.000000 0.400000 0.000000
0.100000 0.400000 0.000000
0.200000 0.400000 0.000000
0.300000 0.400000 0.000000
0.400000 0.400000 0.000000
0.500000 0.400000 0.000000
0.600000 0.400000 0.000000
0.700000 0.400000 0.000000
0.800000 0.400000 0.000000
0.900000 0.400000 0.000000
1.000000 0.400000 0.000000
1.100000 0.400000 0.000000
1.200000 0.400000 0.000000
1.300000 0.400000 0.000000
1.400000 0.400000 0.000000
0.000000 0.500000 0.000000
0.100000 0.500000 0.000000
0.200000 0.500000 0.000000
0.300000 0.500000 0.000000
0.400000 0.500000 0.000000
0.500000 0.500000 0.000000
0.600000 0.500000 0.000000
0.700000 0.500000 0.000000
0.800000 0.500000 0.000000
0.900000 0.500000 0.000000
1.000000 0.500000 0.000000
1.100000 0.500000 0.000000
1.200000 0.500000 0.000000
1.300000 0.500000 0.000000
1.400000 0.500000 0.000000
0.000000 0.600000 0.000000
0.100000 0.600000 0.000000
0.200000 0.600000 0.000000
0.300000 0.600000 0.000000
0.400000 0.600000 0.000000
0.500000 0.600000 0.000000
0.600000 0.600000 0.000000
0.700000 0.600000 0.000000
0.800000 0.600000 0.000000
0.900000 0.600000 0.000000
1.000000 0.600000 0.000000
1.100000 0.600000 0.000000
1.200000 0.600000 0.000000
1.300000 0.600000 0.000000
1.400000 0.600000 0.000000
0.000000 0.700000 0.000000
0.100000 0.700000 0.000000
0.200000 0.700000 0.000000
0.300000 0.700000 0.000000
0.400000 0.700000 0.000000
0.500000 0.700000 0.000000
0.600000 0.700000 0.000000
0.700000 0.700000 0.000000
0.800000 0.700000 0.000000
0.900000 0.700000 0.000000
1.000000 0.700000 0.000000
1.100000 0.700000 0.000000
1.200000 0.700000 0.000000
1.300000 0.700000 0.000000
1.400000 0.700000 0.000000
0.000000 0.800000 0.000000
0.100000 0.800000 0.000000
0.200000 0.800000 0.000000
0.300000 0.800000 0.000000
0.400000 0.800000 0.000000
0.500000 0.800000 0.000000
0.600000 0.800000 0.000000
0.700000 0.800000 0.000000
0.800000 0.800000 0.000000
0.900000 0.800000 0.000000
1.000000 0.800000 0.000000
1.100000 0.800000 0.000000
1.200000 0.800000 0.000000
1.300000 0.800000 0.000000
1.400000 0.800000 0.000000
0.000000 0.900000 0.000000
0.100000 0.900000 0.000000
0.200000 0.900000 0.000000
0.300000 0.900000 0.000000
0.400000 0.900000 0.000000
0.500000 0.900000 0.000000
0.600000 0.900000 0.000000
0.700000 0.900000 0.000000
0.800000 0.900000 0.000000
0.900000 0.900000 0.000000
1.000000 0.900000 0.000000
1.100000 0.900000 0.000000
1.200000 0.900000 0.000000
1.300000 0.900000 0.000000
1.400000 0.900000 0.000000
0.000000 1.000000 0.000000
0.100000 1.000000 0.000000
0.200000 1.000000 0.000000
0.300000 1.000000 0.000000
0.400000 1.000000 0.000000
0.500000 1.000000 0.000000
0.600000 1.000000 0.000000
0.700000 1.000000 0.000000
0.800000 1.000000 0.000000
0.900000 1.000000 0.000000
1.000000 1.000000 0.000000
1.100000 1.000000 0.000000
1.200000 1.000000 0.000000
1.300000 1.000000 0.000000
1.400000 1.000000 0.000000
0.000000 0.000000 0.100000
0.100000 0.000000 0.100000
0.200000 0.000000 0.100000
0.300000 0.000000 0.100000
0.400000 0.000000 0.100000
0.500000 0.000000 0.100000
0.600000 0.000000 0.100000
0.700000 0.000000 0.100000
0.800000 0.000000 0.100000
0.900000 0.000000 0.100000
1.000000 0.000000 0.100000
1.100000 0.000000 0.100000
1.200000 0.000000 0.100000
1.300000 0.000000 0.100000
1.400000 0.000000 0.100000
0.000000 0.100000 0.100000
0.100000 0.100000 0.100000
0.200000 0.100000 0.100000
0.300000 0.100000 0.100000
0.400000 0.100000 0.100000
0.500000 0.100000 0.100000
0.600000 0.100000 0.100000
0.700000 0.100000 0.100000
0.800000 0.100000 0.100000
0.900000 0.100000 0.100000
1.000000 0.100000 0.100000
1.100000 0.100000 0.100000
1.200000 0.100000 0.100000
1.300000 0.100000 0.100000
1.400000 0.100000 0.100000
0.000000 0.200000 0.100000
0.100000 0.200000 0.100000
0.200000 0.200000 0.100000
0.300000 0.200000 0.100000
0.400000 0.200000 0.100000
0.500000 0.200000 0.100000
0.600000 0.200000 0.100000
0.700000 0.200000 0.100000
0.800000 0.200000 0.100000
0.900000 0.200000 0.100000
1.000000 0.200000 0.100000
1.100000 0.200000 0.100000
1.200000 0.200000 0.100000
1.300000 0.200000 0.100000
1.400000 0.200000 0.100000
0.000000 0.300000 0.100000
0.100000 0.300000 0.100000
0.200000 0.300000 0.100000
0.300000 0.300000 0.100000
0.400000 0.300000 0.100000
0.500000 0.300000 0.100000
0.600000 0.300000 0.100000
0.700000 0.300000 0.100000
0.800000 0.300000 0.100000
0.900000 0.300000 0.100000
1.000000 0.300000 0.100000
1.100000 0.300000 0.100000
1.200000 0.300000 0.100000
1.300000 0.300000 0.100000
1.400000 0.300000 0.100000
0.000000 0.400000 0.100000
0.100000 0.400000 0.100000
0.200000 0.400000 0.100000
0.300000 0.400000 0.100000
0.400000 0.400000 0.100000
0.500000 0.400000 0.100000
0.600000 0.400000 0.100000
0.700000 0.400000 0.100000
0.800000 0.400000 0.100000
0.900000 0.400000 0.100000
1.000000 0.400000 0.100000
1.100000 0.400000 0.100000
1.200000 0.400000 0.100000
1.300000 0.400000 0.100000
1.400000 0.400000 0.100000
0.000000 0.500000 0.100000
0.100000 0.500000 0.100000
0.200000 0.500000 0.100000
0.300000 0.500000 0.100000
0.400000 0.500000 0.100000
0.500000 0.500000 0.100000
0.600000 0.500000 0.100000
0.700000 0.500000 0.100000
0.800000 0.500000 0.100000
0.900000 0.500000 0.100000
1.000000 0.500000 0.100000
1.100000 0.500000 0.100000
1.200000 0.500000 0.100000
1.300000 0.500000 0.100000
1.400000 0.500000 0.100000
0.000000 0.600000 0.100000
0.100000 0.600000 0.100000
0.200000 0.600000 0.100000
0.300000 0.600000 0.100000
0.400000 0.600000 0.100000
0.500000 0.600000 0.100000
0.600000 0.600000 0.100000
0.700000 0.600000 0.100000
0.800000 0.600000 0.100000
0.900000 0.600000 0.100000
1.000000 0.600000 0.100000
1.100000 0.600000 0.100000
1.200000 0.600000 0.100000
1.300000 0.600000 0.100000
1.400000 0.600000 0.100000
0.000000 0.700000 0.100000
0.100000 0.700000 0.100000
0.200000 0.700000 0.100000
0.300000 0.700000 0.100000
0.400000 0.700000 0.100000
0.500000 0.700000 0.100000
0.600000 0.700000 0.100000
0.700000 0.700000 0.100000
0.800000 0.700000 0.100000
0.900000 0.700000 0.100000
1.000000 0.700000 0.100000
1.100000 0.700000 0.100000
1.200000 0.700000 0.100000
1.300000 0.700000 0.100000
1.400000 0.700000 0.100000
0.000000 0.800000 0.100000
0.100000 0.800000 0.100000
0.200000 0.800000 0.100000
0.300000 0.800000 0.100000
0.400000 0.800000 0.100000
0.500000 0.800000 0.100000
0.600000 0.800000 0.100000
0.700000 0.800000 0.100000
0.800000 0.800000 0.100000
0.900000 0.800000 0.100000
1.000000 0.800000 0.100000
1.100000 0.800000 0.100000
1.200000 0.800000 0.100000
1.300000 0.800000 0.100000
1.400000 0.800000 0.100000
0.000000 0.900000 0.100000
0.100000 0.900000 0.100000
0.200000 0.900000 0.100000
0.300000 0.900000 0.100000
0.400000 0.900000 0.100000
0.500000 0.900000 0.100000
0.600000 0.900000 0.100000
0.700000 0.900000 0.100000
0.800000 0.900000 0.100000
0.900000 0.900000 0.100000
1.000000 0.900000 0.100000
1.100000 0.900000 0.100000
1.200000 0.900000 0.100000
1.300000 0.900000 0.100000
1.400000 0.900000 0.100000
0.000000 1.000000 0.100000
0.100000 1.000000 0.100000
0.200000 1.000000 0.100000
0.300000 1.000000 0.100000
0.400000 1.000000 0.100000
0.500000 1.000000 0.100000
0.600000 1.000000 0.100000
0.700000 1.000000 0.100000
0.800000 1.000000 0.100000
0.900000 1.000000 0.100000
1.000000 1.000000 0.100000
1.100000 1.000000 0.100000
1.200000 1.000000 0.100000
1.300000 1.000000 0.100000
1.400000 1.000000 0.100000
0.000000 0.000000 0.200000
0.100000 0.000000 0.200000
0.200000 0.000000 0.200000
0.300000 0.000000 0.200000
0.400000 0.000000 0.200000
0.500000 0.000000 0.200000
0.600000 0.000000 0.200000
0.700000 0.000000 0.200000
0.800000 0.000000 0.200000
0.900000 0.000000 0.200000
1.000000 0.000000 0.200000
1.100000 0.000000 0.200000
1.200000 0.000000 0.200000
1.300000 0.000000 0.200000
1.400000 0.000000 0.200000
0.000000 0.100000 0.200000
0.100000 0.100000 0.200000
0.200000 0.100000 0.200000
0.300000 0.100000 0.200000
0.400000 0.100000 0.200000
0.500000 0.100000 0.200000
0.600000 0.100000 0.200000
0.700000 0.100000 0.200000
0.800000 0.100000 0.200000
0.900000 0.100000 0.200000
1.000000 0.100000 0.200000
1.100000 0.100000 0.200000
1.200000 0.100000 0.200000
1.300000 0.100000 0.200000
1.400000 0.100000 0.200000
0.000000 0.200000 0.200000
0.100000 0.200000 0.200000
0.200000 0.200000 0.200000
0.300000 0.200000 0.200000
0.400000 0.200000 0.200000
[...]
CELL_DATA 2800
SCALARS pressure float 1
LOOKUP_TABLE default
40.6189
37.5
35.1613
33.4034
32.0065
30.8217
29.7553
28.747
27.7557
26.7528
25.7194
24.6452
23.5281
22.374
42.9677
37.859
35.0441
33.2219
31.8565
30.7145
29.6831
28.7001
27.7263
26.7353
25.7098
24.6405
23.5262
22.3733
46.3268
38.8394
35.2072
33.1388
31.7244
30.5957
29.5936
28.64
27.6912
26.7193
25.7069
24.645
23.5327
22.3773
49.8342
40.0928
35.5774
33.1831
31.6638
30.5162
29.5269
28.5961
27.6706
26.7184
25.7195
24.6638
23.5503
22.3874
53.1195
41.391
36.0473
33.3168
31.6701
30.4842
29.4949
28.5795
27.6737
26.739
25.7519
24.6996
23.5805
22.4041
56.0037
42.5991
36.5335
33.4947
31.7213
30.4908
29.4946
28.5894
27.6997
26.7802
25.8025
24.7505
23.6216
22.4264
58.3895
43.6354
36.9779
33.6789
31.794
30.5211
29.5161
28.618
27.7417
26.835
25.8644
24.8102
23.6687
22.4517
60.2189
44.4491
37.3412
33.8409
31.8675
30.56
29.547
28.6543
27.7886
26.8922
25.9267
24.8691
23.7143
22.4757
61.456
45.0078
37.597
33.96
31.9259
30.5942
29.5756
28.6867
27.8286
26.9395
25.9773
24.9163
23.7506
22.4946
62.0797
45.2918
37.729
34.023
31.9582
30.6141
29.5926
28.7058
27.8517
26.9665
26.0059
24.9428
23.7709
22.5051
38.2495
36.8205
35.0797
33.4882
32.1133
30.9113
29.8222
28.7947
27.7892
26.7763
25.736
24.6569
23.5362
22.3791
38.9449
37.0089
35.0494
33.4046
32.0337
30.848
29.7736
28.7563
27.7573
26.7488
25.7122
24.6371
23.5213
22.3701
40.3419
37.6828
35.2812
33.4385
31.9963
30.7939
29.7238
28.7172
27.7297
26.7311
25.7021
24.6323
23.5193
22.3688
41.9966
38.5975
35.6854
33.5789
32.0192
30.7736
29.6947
28.6942
27.7176
26.73
25.7092
24.6435
23.5299
22.3747
43.6508
39.579
36.1715
33.7887
32.0938
30.7903
29.6932
28.6937
27.7259
26.7482
25.7346
24.6706
23.5527
22.3873
45.1596
40.5137
36.6663
34.0274
32.1999
30.8353
29.7161
28.7144
27.7533
26.784
25.7759
24.7113
23.5853
22.4053
46.4379
41.328
37.1164
34.2597
32.3157
30.8952
29.7542
28.7492
27.7933
26.831
25.8268
24.7596
23.6233
22.4262
47.4336
41.9739
37.4837
34.4576
32.4214
30.9555
29.7964
28.7883
27.8364
26.8797
25.8782
24.8076
23.6605
22.4464
48.1136
42.4202
37.7422
34.6009
32.5011
31.0037
29.8319
28.8216
27.8725
26.9198
25.92
24.8461
23.6902
22.4622
48.4583
42.6479
37.8755
34.676
32.544
31.0304
29.8521
28.8408
27.8932
26.9426
25.9435
24.8678
23.7067
22.471
36.328
35.6729
34.5326
33.274
32.0584
30.9253
29.8629
28.8438
27.8392
26.824
25.7793
24.694
23.5652
22.3984
36.4507
35.6937
34.4768
33.1964
31.9854
30.8631
29.8097
28.7961
27.7944
26.7812
25.7395
24.6592
23.5382
22.3818
36.9623
36.0288
34.6286
33.2369
31.9729
30.8308
29.7735
28.7627
27.766
26.7584
25.722
24.6466
23.5297
22.3768
37.6973
36.5523
34.9198
33.3699
32.0182
30.8348
29.7626
28.7506
27.7588
26.7579
25.7272
24.6548
23.5377
22.3814
38.5077
37.1552
35.2841
33.5619
32.108
30.8722
29.7784
28.7619
27.7742
26.7797
25.7539
24.6823
23.5606
22.3946
39.2915
37.7555
35.6653
33.779
32.2236
30.9335
29.8158
28.7934
27.8089
26.8205
25.7988
24.7255
23.5952
22.4147
39.9811
38.2942
36.0189
33.9906
32.3452
31.0055
29.8654
28.8373
27.8559
26.8733
25.8549
24.7783
23.6367
22.4388
40.5317
38.7301
36.3115
34.1717
32.4544
31.0746
29.9162
28.8836
27.9051
26.9278
25.912
24.8314
23.6777
22.4622
40.9138
39.0353
36.5195
34.3032
32.5363
31.1285
29.9574
28.9219
27.9458
26.9724
25.9583
24.8741
23.7103
22.4802
41.1092
39.1922
36.6273
34.3723
32.5801
31.1581
29.9806
28.9436
27.9689
26.9976
25.9844
24.898
23.7284
22.4899
34.9135
34.5694
33.8272
32.8792
31.8646
30.8503
29.8553
28.8737
27.8892
26.8834
25.8403
24.75
23.6103
22.4281
34.864
34.5232
33.7563
32.7996
31.7886
30.7811
29.7913
28.8121
27.8282
26.8233
25.7832
24.6996
23.5711
22.4041
35.0026
34.6548
33.8266
32.8172
31.7745
30.7518
29.7566
28.7772
27.7958
26.7947
25.7594
24.6809
23.5579
22.3964
35.3024
34.9185
34.0008
32.9107
31.8137
30.7611
29.753
28.7711
27.793
26.7973
25.767
24.6911
23.5675
22.4025
35.6909
35.2567
34.2377
33.0549
31.8932
30.8031
29.7779
28.7925
27.8183
26.8293
25.8039
24.7278
23.5976
22.4208
36.1017
35.6159
34.4981
33.2236
31.9964
30.8676
29.8248
28.8361
27.8672
26.8863
25.8659
24.7869
23.6445
22.4498
36.4841
35.9525
34.7479
33.392
32.106
30.9421
29.8836
28.8932
27.9309
26.9595
25.9447
24.8611
23.7018
22.4857
36.8009
36.2329
34.9596
33.5387
32.2053
31.0132
29.9426
28.952
27.9969
27.0352
26.0262
24.9374
23.7589
22.5209
37.0259
36.4329
35.1123
33.6465
32.2802
31.0687
29.9901
29
28.0511
27.0972
26.0925
24.9987
23.804
22.5462
37.1426
36.5369
35.1923
33.7035
32.3205
31.0991
30.0166
29.0271
28.0816
27.132
26.1296
25.0328
23.8286
22.5591
33.8919
33.6626
33.1504
32.4332
31.6017
30.7171
29.8087
28.8833
27.934
26.9482
25.9127
24.8191
23.6667
22.4645
33.8055
33.6025
33.0815
32.358
31.5258
30.6426
29.7346
28.8078
27.8564
26.8699
25.8375
24.7523
23.6147
22.4328
33.7945
33.632
33.0997
32.3541
31.5045
30.6108
29.6978
28.7698
27.8198
26.8367
25.8091
24.7298
23.5987
22.4238
33.8913
33.7481
33.1905
32.4093
31.5304
30.6183
29.6971
28.7686
27.8231
26.8465
25.8246
24.7475
23.6144
22.4342
34.0681
33.9263
33.3326
32.5073
31.5928
30.6587
29.7285
28.8011
27.8635
26.8971
25.8821
24.8036
23.6594
22.4632
34.2847
34.1345
33.5005
32.6294
31.6783
30.7221
29.7842
28.8609
27.9354
26.9839
25.9784
24.8954
23.7302
22.5106
34.5037
34.3416
33.6694
32.7561
31.7719
30.7965
29.8535
28.9373
28.0281
27.0964
26.1048
25.0157
23.8176
22.572
34.6948
34.5211
33.8171
32.8694
31.8586
30.8684
29.923
29.0158
28.1245
27.2151
26.2405
25.1457
23.9039
22.6331
34.835
34.6525
33.926
32.9542
31.9249
30.925
29.979
29.0798
28.2034
27.312
26.3502
25.249
23.9726
22.6725
34.9091
34.7219
33.9838
32.9996
31.9609
30.9562
30.0103
29.1158
28.2478
27.3661
26.4108
25.3051
24.0093
22.6904
33.1583
32.967
32.5806
32.019
31.3318
30.5638
29.743
28.8804
27.9741
27.0148
25.9911
24.8955
23.7291
22.5035
33.0757
32.9119
32.521
31.9515
31.2588
30.4864
29.6606
28.7921
27.8803
26.9182
25.8972
24.8119
23.6642
22.4645
33.009
32.8952
32.5114
31.9341
31.2316
30.4517
29.6214
28.7513
27.8407
26.8822
25.8667
24.7878
23.6472
22.4555
33.0122
32.9332
32.5512
31.9617
31.2456
30.4565
29.6232
28.7561
27.853
26.9041
25.8962
24.819
23.6733
22.4733
33.0822
33.0206
32.6317
32.0254
31.2932
30.4949
29.6613
28.8026
27.9144
26.9827
25.9865
24.9065
23.7411
22.5198
33.1961
33.1394
32.7377
32.1121
31.3637
30.5579
29.7278
28.8837
28.0197
27.1162
26.1406
25.0546
23.8473
22.5991
33.3265
33.268
32.8513
32.2069
31.4442
30.6336
29.8107
28.9871
28.1564
27.2949
26.3558
25.2663
23.9754
22.7089
33.4485
33.3855
32.9548
32.2946
31.5208
30.708
29.8946
29.0939
28.3008
27.4901
26.6036
25.5244
24.0889
22.8204
33.5418
33.4743
33.0332
32.3617
31.5805
30.7672
29.9625
29.1811
28.4191
27.6485
26.799
25.7176
24.1905
22.8792
33.5922
33.5221
33.0754
32.3981
31.6132
30.8001
30.0005
29.2301
28.4852
27.7359
26.9045
25.8193
24.2432
22.9014
32.6389
32.4573
32.1387
31.6766
31.0942
30.4202
29.6765
28.8734
28.0104
27.0793
26.069
24.9722
23.7913
22.5411
32.5691
32.4111
32.0887
31.6169
31.0246
30.341
29.5872
28.7736
27.9014
26.9652
25.957
24.8722
23.714
22.4956
32.4849
32.3755
32.066
31.5923
30.9939
30.3042
29.5462
28.731
27.8603
26.9285
25.9267
24.8489
23.6977
22.4877
32.4462
32.3742
32.0772
31.6028
30.9999
30.3075
29.5511
28.743
27.8842
26.9664
25.9754
24.8986
23.7372
22.5153
32.4627
32.4119
32.1208
31.644
31.0376
30.3457
29.5972
28.8058
27.9716
27.0817
26.111
25.0298
23.8327
22.5851
32.5222
32.4797
32.1885
31.7073
31.0982
30.4104
29.6766
28.9127
28.1195
27.2798
26.3522
25.2675
23.9771
22.7103
32.6043
32.5624
32.267
31.7807
31.1703
30.4899
29.7762
29.0497
28.3156
27.5585
26.7242
25.6683
24.1192
22.8931
32.688
32.6429
32.3422
31.8512
31.2408
30.5692
29.8778
29.1928
28.5278
27.8804
27.2105
26.3215
24.2355
23.0674
32.7551
32.7062
32.4009
31.9064
31.2967
30.6331
29.9605
29.3099
28.7009
28.1363
27.5674
26.722
24.4499
23.1376
32.7923
32.741
32.4331
31.9368
31.3276
30.6687
30.0069
29.3755
28.7969
28.2751
27.754
26.9242
24.5224
23.1572
32.2848
32.1036
31.8211
31.4205
30.9092
30.3042
29.621
28.8674
28.0421
27.1365
26.1386
25.0407
23.8464
22.5732
32.227
32.0651
31.7786
31.3665
30.8422
30.2235
29.5259
28.7578
27.92
27.0069
26.0106
24.9263
23.7583
22.5223
32.1399
32.0227
31.7505
31.3388
30.8097
30.1856
29.4838
28.7142
27.8784
26.9708
25.982
24.905
23.7435
22.5159
32.0834
32.0026
31.7465
31.3396
30.8112
30.1886
29.4922
28.7337
27.9145
27.0261
26.052
24.9752
23.7964
22.553
32.0738
32.0142
31.7694
31.3676
30.8432
30.2281
29.5468
28.8132
28.029
27.1811
26.2385
25.1569
23.9172
22.6449
32.105
32.0541
31.8148
31.4168
30.8984
30.2962
29.6394
28.9464
28.2225
27.4531
26.5888
25.5181
24.0811
22.8125
32.1613
32.1108
31.8726
31.4773
30.9663
30.381
29.7564
29.1188
28.4851
27.8568
27.1967
26.3083
24.2054
23.0385
32.2243
32.1702
31.9309
31.5374
31.0341
30.4667
29.8767
29.301
28.7769
28.3556
28.1587
28.4384
0.0
0.0
32.277
32.2187
31.9777
31.5855
31.0886
30.5361
29.9749
29.4502
29.0132
28.7379
28.772
29.3353
0.0
0.0
32.307
32.246
32.0039
31.6123
31.119
30.575
30.0299
29.5335
29.1433
28.9418
29.0847
29.787
0.0
0.0
32.0645
31.8815
31.6177
31.2522
30.7846
30.2245
29.5825
28.864
28.0664
27.1797
26.1912
25.0925
23.8877
22.5965
32.0151
31.8481
31.5798
31.2019
30.7192
30.1426
29.4832
28.7472
27.9343
27.0386
26.0512
24.9673
23.7915
22.5417
31.9295
31.804
31.5497
31.1729
30.686
30.1041
29.4404
28.7031
27.8928
27.0035
26.0246
24.948
23.778
22.5362
31.8662
31.7754
31.5384
31.1689
30.6853
30.1074
29.4519
28.7287
27.939
27.0731
26.1118
25.0345
23.8414
22.5789
31.8446
31.7743
31.5507
31.1899
30.7145
30.1488
29.5134
28.8216
28.0754
27.2602
26.339
25.2553
23.983
22.6821
31.862
31.7997
31.5842
31.2315
30.7673
30.2205
29.617
28.9763
28.3058
27.5909
26.772
25.7031
24.1756
22.865
31.9053
31.8428
31.6308
31.285
30.8337
30.3104
29.7482
29.1773
28.6215
28.09
27.5387
26.6968
24.4076
23.0963
31.9576
31.891
31.6799
31.3396
30.9008
30.4018
29.8837
29.3909
28.9757
28.7141
28.7555
29.32
0.0
0.0
32.0031
31.9317
31.7202
31.3839
30.9552
30.4761
29.9946
29.5661
29.2626
29.1928
29.5428
30.6341
0.0
0.0
32.0294
31.9549
31.743
31.4088
30.9857
30.5179
30.0567
29.6638
29.4203
29.4474
29.9424
31.2252
0.0
0.0
31.9589
31.7746
31.5187
31.1693
30.7225
30.1844
29.5632
28.8628
28.0797
27.2032
26.2198
25.1205
23.9098
22.6088
31.9138
31.7438
31.4831
31.1208
30.6577
30.1018
29.4616
28.7421
27.9424
27.0558
26.0733
24.9894
23.8094
22.552
31.8297
31.6995
31.4525
31.0914
30.6243
30.063
29.4186
28.6978
27.901
27.0214
26.0478
24.9714
23.7966
22.5468
31.7644
31.6678
31.4384
31.0854
30.6228
30.0668
29.4318
28.7269
27.9527
27.0989
26.1446
25.0667
23.8655
22.5916
31.7382
31.6615
31.4462
31.1036
30.6511
30.1094
29.4972
28.8273
28.1014
27.3037
26.3936
25.3081
24.0176
22.6984
31.7501
31.681
31.4747
31.142
30.7032
30.1833
29.607
28.9938
28.3519
27.666
26.8697
25.7994
24.2243
22.8838
31.788
31.7183
31.5166
31.1927
30.7693
30.2762
29.7461
29.2105
28.6964
28.2149
27.7155
26.8913
24.4737
23.1101
31.836
31.7617
31.5616
31.2449
30.8364
30.371
29.8901
29.4414
29.0839
28.903
29.0568
29.7605
0.0
0.0
31.8784
31.799
31.5991
31.2877
30.8911
30.4482
30.008
29.6307
29.3981
29.4319
29.9301
31.212
0.0
0.0
31.9031
31.8205
31.6205
31.3118
30.9218
30.4916
30.0741
29.7365
29.5707
29.7133
30.374
31.8688
0.0
0.0
31.9591
31.7748
31.5189
31.1695
30.7226
30.1846
29.5634
28.8631
28.08
27.2036
26.2201
25.1208
23.9102
22.6091
31.9139
31.7439
31.4833
31.1209
30.6579
30.102
29.4618
28.7423
27.9426
27.0561
26.0736
24.9897
23.8097
22.5523
31.8299
31.6996
31.4527
31.0916
30.6245
30.0632
29.4188
28.698
27.9012
27.0216
26.0481
24.9717
23.7969
22.5471
31.7646
31.6679
31.4385
31.0856
30.623
30.067
29.432
28.7272
27.953
27.0992
26.1449
25.0671
23.8658
22.5919
31.7384
31.6617
31.4464
31.1037
30.6513
30.1096
29.4974
28.8275
28.1016
27.304
26.394
25.3085
24.0179
22.6987
31.7503
31.6812
31.4748
31.1422
30.7034
30.1835
29.6072
28.994
28.3522
27.6664
26.8702
25.7999
24.2245
22.8839
31.7882
31.7185
31.5167
31.1928
30.7694
30.2764
29.7463
29.2108
28.6967
28.2154
27.7162
26.8922
24.4735
23.1097
31.8362
31.7619
31.5618
31.2451
30.8366
30.3712
29.8903
29.4416
29.0842
28.9035
29.0578
29.7631
0.0
0.0
31.8786
31.7992
31.5993
31.2879
30.8913
30.4485
30.0082
29.6311
29.3985
29.4324
29.9305
31.2121
0.0
0.0
31.9033
31.8207
31.6207
31.312
30.922
30.4919
30.0744
29.7368
29.5712
29.7137
30.3742
31.8677
0.0
0.0
32.065
31.8819
31.6181
31.2527
30.7851
30.2251
29.5832
28.8647
28.0672
27.1806
26.1922
25.0935
23.8887
22.5975
32.0156
31.8485
31.5803
31.2024
30.7197
30.1432
29.4838
28.7479
27.9351
27.0394
26.0522
24.9682
23.7925
22.5427
31.93
31.8045
31.5502
31.1734
30.6865
30.1046
29.4411
28.7038
27.8936
27.0043
26.0255
24.949
23.779
22.5372
31.8667
31.7759
31.5389
31.1693
30.6858
30.108
29.4525
28.7294
27.9397
27.0739
26.1128
25.0355
23.8424
22.5798
31.8451
31.7748
31.5512
31.1904
30.715
30.1493
29.514
28.8224
28.0763
27.2612
26.3401
25.2565
23.984
22.6829
31.8626
31.8002
31.5847
31.232
30.7679
30.221
29.6177
28.977
28.3067
27.5921
26.7734
25.7046
24.1764
22.8656
31.9058
31.8434
31.6313
31.2855
30.8343
30.311
29.7489
29.1781
28.6225
28.0913
27.5406
26.6993
24.4076
23.0961
31.9582
31.8915
31.6804
31.3401
30.9014
30.4024
29.8845
29.3918
28.9768
28.7156
28.7582
29.3269
0.0
0.0
32.0037
31.9322
31.7207
31.3845
30.9558
30.4768
29.9953
29.567
29.2637
29.1941
29.5439
30.6342
0.0
0.0
32.03
31.9555
31.7436
31.4094
30.9863
30.5186
30.0576
29.6649
29.4216
29.4487
29.9429
31.222
0.0
0.0
32.2856
32.1043
31.8219
31.4213
30.91
30.3051
29.622
28.8686
28.0435
27.1379
26.1401
25.0424
23.8481
22.5749
32.2278
32.0658
31.7793
31.3673
30.843
30.2244
29.5269
28.7589
27.9212
27.0083
26.0121
24.9279
23.7599
22.5238
32.1407
32.0235
31.7512
31.3395
30.8105
30.1865
29.4848
28.7153
27.8796
26.9721
25.9835
24.9066
23.745
22.5174
32.0842
32.0033
31.7472
31.3404
30.812
30.1895
29.4932
28.7348
27.9157
27.0275
26.0535
24.9768
23.798
22.5545
32.0746
32.015
31.7702
31.3684
30.844
30.229
29.5478
28.8143
28.0303
27.1826
26.2402
25.1587
23.919
22.6465
32.1059
32.0549
31.8156
31.4176
30.8992
30.2972
29.6405
28.9476
28.2239
27.4548
26.5909
25.5205
24.0829
22.8141
32.1622
32.1116
31.8735
31.4781
30.9672
30.382
29.7575
29.1201
28.4867
27.8588
27.1995
26.3119
24.2071
23.0401
32.2252
32.171
31.9318
31.5383
31.035
30.4677
29.8778
29.3024
28.7786
28.3578
28.1622
28.4461
0.0
0.0
32.278
32.2196
31.9786
31.5864
31.0895
30.5372
29.9761
29.4517
29.0149
28.7399
28.7736
29.3345
0.0
0.0
32.308
32.2469
32.0048
31.6132
31.12
30.5761
30.0313
29.5352
29.1453
28.9439
29.0858
29.7825
0.0
0.0
32.6399
32.4582
32.1396
31.6777
31.0953
30.4215
29.6779
28.875
28.0122
27.0813
26.0711
24.9744
23.7936
22.5434
32.5701
32.4121
32.0897
31.6179
31.0257
30.3422
29.5885
28.7751
27.9031
26.967
25.9589
24.8743
23.7161
22.4976
32.486
32.3765
32.067
31.5934
30.995
30.3054
29.5475
28.7325
27.8619
26.9302
25.9286
24.8508
23.6998
22.4897
32.4473
32.3752
32.0782
31.6039
31.001
30.3087
29.5524
28.7444
27.8858
26.9682
25.9774
24.9007
23.7394
22.5175
32.4639
32.413
32.1219
31.6451
31.0387
30.3469
29.5986
28.8073
27.9733
27.0837
26.1132
25.0323
23.8352
22.5875
32.5234
32.4808
32.1895
31.7084
31.0993
30.4117
29.678
28.9143
28.1213
27.282
26.3549
25.2706
23.9804
22.7134
32.6055
32.5635
32.2681
31.7818
31.1715
30.4912
29.7776
29.0514
28.3176
27.5611
26.7275
25.6727
24.1244
22.8983
32.6893
32.644
32.3434
31.8524
31.242
30.5706
29.8794
29.1946
28.53
27.8832
27.2144
26.3278
24.2473
23.0786
32.7564
32.7073
32.402
31.9076
31.2979
30.6345
29.9622
29.3119
28.7033
28.1391
27.5708
26.7267
24.4598
23.1489
32.7937
32.7422
32.4343
31.938
31.3289
30.6702
30.0086
29.3777
28.7996
28.2783
27.7575
26.9283
24.5314
23.1681
33.1595
32.9681
32.5818
32.0202
31.3331
30.5654
29.7448
28.8823
27.9762
27.0171
25.9936
24.8981
23.7318
22.5062
33.0769
32.913
32.5222
31.9527
31.2601
30.4879
29.6623
28.7939
27.8822
26.9203
25.8995
24.8143
23.6667
22.467
33.0103
32.8964
32.5126
31.9353
31.2329
30.4531
29.623
28.7531
27.8426
26.8843
25.8689
24.7902
23.6497
22.4579
33.0135
32.9345
32.5525
31.963
31.2469
30.4579
29.6248
28.7578
27.8549
26.9062
25.8985
24.8215
23.6759
22.4759
33.0836
33.0219
32.633
32.0266
31.2946
30.4964
29.663
28.8044
27.9164
26.985
25.9891
24.9094
23.744
22.5227
33.1975
33.1407
32.7391
32.1134
31.3651
30.5594
29.7295
28.8856
28.0218
27.1187
26.1436
25.0581
23.851
22.6028
33.328
33.2694
32.8526
32.2082
31.4457
30.6351
29.8124
28.9891
28.1587
27.2977
26.3593
25.2706
23.9804
22.714
33.45
33.3868
32.9562
32.296
31.5223
30.7096
29.8964
29.096
28.3034
27.4932
26.6076
25.5297
24.096
22.8278
33.5433
33.4757
33.0345
32.3631
31.582
30.7689
29.9644
29.1834
28.4219
27.6519
26.8032
25.723
24.1979
22.8872
33.5937
33.5235
33.0768
32.3995
31.6148
30.8019
30.0025
29.2326
28.4883
27.7397
26.909
25.8249
24.2509
22.9098
33.8933
33.6639
33.1517
32.4346
31.6033
30.7188
29.8107
28.8854
27.9363
26.9507
25.9155
24.822
23.6696
22.4674
33.8069
33.6039
33.0829
32.3593
31.5273
30.6442
29.7364
28.8098
27.8586
26.8723
25.84
24.755
23.6175
22.4356
33.796
33.6334
33.101
32.3555
31.506
30.6124
29.6996
28.7717
27.822
26.839
25.8116
24.7324
23.6014
22.4265
33.8928
33.7496
33.1919
32.4107
31.5319
30.6199
29.6989
28.7705
27.8252
26.8489
25.8272
24.7503
23.6172
22.437
34.0697
33.9278
33.334
32.5088
31.5943
30.6603
29.7303
28.8031
27.8657
26.8996
25.8849
24.8066
23.6626
22.4664
34.2863
34.136
33.502
32.6309
31.6799
30.7238
29.7861
28.863
27.9377
26.9866
25.9815
24.8989
23.7339
22.5143
34.5053
34.3432
33.6709
32.7576
31.7735
30.7982
29.8554
28.9396
28.0306
27.0994
26.1083
25.0197
23.8221
22.5766
34.6964
34.5227
33.8187
32.871
31.8602
30.8702
29.925
29.0181
28.1272
27.2184
26.2444
25.1504
23.9093
22.6388
34.8366
34.6541
33.9276
32.9558
31.9266
30.9268
29.9811
29.0823
28.2064
27.3156
26.3545
25.254
23.9785
22.6788
34.9108
34.7235
33.9854
33.0012
31.9627
30.9581
30.0125
29.1185
28.2511
27.3701
26.4154
25.3106
24.0157
22.6971
34.9149
34.5708
33.8286
32.8807
31.8663
30.8522
29.8574
28.8759
27.8917
26.8861
25.8432
24.753
23.6134
22.4312
34.8655
34.5247
33.7578
32.8012
31.7902
30.7829
29.7932
28.8142
27.8306
26.8258
25.7859
24.7025
23.574
22.407
35.0042
34.6563
33.8281
32.8188
31.7761
30.7536
29.7585
28.7793
27.7981
26.7972
25.762
24.6837
23.5608
22.3993
35.3041
34.9201
34.0023
32.9122
31.8154
30.7629
29.7549
28.7732
27.7953
26.7998
25.7697
24.6941
23.5706
22.4055
35.6926
35.2583
34.2393
33.0565
31.8948
30.8048
29.7798
28.7946
27.8207
26.832
25.8068
24.7309
23.6009
22.4241
36.1034
35.6176
34.4997
33.2252
31.9981
30.8694
29.8268
28.8384
27.8698
26.8891
25.8691
24.7904
23.6482
22.4536
36.4858
35.9541
34.7496
33.3937
32.1077
30.9439
29.8857
28.8955
27.9336
26.9625
25.9482
24.865
23.7061
22.49
36.8026
36.2345
34.9612
33.5403
32.207
31.0151
29.9448
28.9544
27.9998
27.0386
26.0301
24.9418
23.7637
22.5258
37.0276
36.4346
35.114
33.6481
32.282
31.0707
29.9923
29.0026
28.0542
27.1008
26.0968
25.0035
23.8093
22.5517
37.1444
36.5386
35.194
33.7052
32.3223
31.1012
30.019
29.0299
28.085
27.1359
26.1342
25.0379
23.8343
22.5649
36.3295
35.6743
34.5342
33.2757
32.0602
30.9272
29.865
28.8461
27.8417
26.8267
25.7823
24.6971
23.5684
22.4016
36.4523
35.6952
34.4784
33.1981
31.9872
30.865
29.8117
28.7984
27.7968
26.7838
25.7422
24.6622
23.5413
22.3849
36.964
36.0305
34.6302
33.2386
31.9747
30.8326
29.7755
28.7648
27.7684
26.761
25.7248
24.6495
23.5327
22.3798
37.699
36.5539
34.9214
33.3715
32.0199
30.8366
29.7646
28.7527
27.7612
26.7605
25.73
24.6578
23.5409
22.3846
38.5095
37.1569
35.2858
33.5636
32.1097
30.8741
29.7804
28.7642
27.7766
26.7824
25.7569
24.6855
23.5639
22.398
39.2933
37.7572
35.6669
33.7807
32.2254
30.9354
29.8178
28.7957
27.8115
26.8234
25.8021
24.7291
23.599
22.4185
39.9828
38.2959
36.0205
33.9923
32.347
31.0074
29.8675
28.8397
27.8586
26.8765
25.8585
24.7823
23.6409
22.443
40.5334
38.7318
36.3132
34.1734
32.4562
31.0765
29.9184
28.8861
27.9081
26.9312
25.9159
24.8357
23.6824
22.467
40.9155
39.0369
36.5211
34.3049
32.5381
31.1305
29.9597
28.9246
27.9489
26.9761
25.9626
24.8788
23.7154
22.4854
41.111
39.1938
36.629
34.374
32.5819
31.1601
29.983
28.9464
27.9723
27.0016
25.989
24.903
23.7338
22.4954
38.251
36.8221
35.0814
33.4899
32.1152
30.9132
29.8243
28.797
27.7916
26.779
25.7389
24.6599
23.5393
22.3823
38.9465
37.0105
35.051
33.4063
32.0355
30.8499
29.7756
28.7584
27.7596
26.7513
25.7149
24.64