# vtk DataFile Version 2.0
I need something to put here
ASCII

DATASET STRUCTURED_GRID
DIMENSIONS 14 11 21
POINTS 3234 float
1.400000 0.000000 0.000000
1.500000 0.000000 0.000000
1.600000 0.000000 0.000000
1.700000 0.000000 0.000000
1.800000 0.000000 0.000000
1.900000 0.000000 0.000000
2.000000 0.000000 0.000000
2.100000 0.000000 0.000000
2.200000 0.000000 0.000000
2.300000 0.000000 0.000000
2.400000 0.000000 0.000000
2.500000 0.000000 0.000000
2.600000 0.000000 0.000000
2.700000 0.000000 0.000000
1.400000 0.100000 0.000000
1.500000 0.100000 0.000000
1.600000 0.100000 0.000000
1.700000 0.100000 0.000000
1.800000 0.100000 0.000000
1.900000 0.100000 0.000000
2.000000 0.100000 0.000000
2.100000 0.100000 0.000000
2.200000 0.100000 0.000000
2.300000 0.100000 0.000000
2.400000 0.100000 0.000000
2.500000 0.100000 0.000000
2.600000 0.100000 0.000000
2.700000 0.100000 0.000000
1.400000 0.200000 0.000000
1.500000 0.200000 0.000000
1.600000 0.200000 0.000000
1.700000 0.200000 0.000000
1.800000 0.200000 0.000000
1.900000 0.200000 0.000000
2.000000 0.200000 0.000000
2.100000 0.200000 0.000000
2.200000 0.200000 0.000000
2.300000 0.200000 0.000000
2.400000 0.200000 0.000000
2.500000 0.200000 0.000000
2.600000 0.200000 0.000000
2.700000 0.200000 0.000000
1.400000 0.300000 0.000000
1.500000 0.300000 0.000000
1.600000 0.300000 0.000000
1.700000 0.300000 0.000000
1.800000 0.300000 0.000000
1.900000 0.300000 0.000000
2.000000 0.300000 0.000000
2.100000 0.300000 0.000000
2.200000 0.300000 0.000000
2.300000 0.300000 0.000000
2.400000 0.300000 0.000000
2.500000 0.300000 0.000000
2.600000 0.300000 0.000000
2.700000 0.300000 0.000000
1.400000 0.400000 0.000000
1.500000 0.400000 0.000000
1.600000 0.400000 0.000000
1.700000 0.400000 0.000000
1.800000 0.400000 0.000000
1.900000 0.400000 0.000000
2.000000 0.400000 0.000000
2.100000 0.400000 0.000000
2.200000 0.400000 0.000000
2.300000 0.400000 0.000000
2.400000 0.400000 0.000000
2.500000 0.400000 0.000000
2.600000 0.400000 0.000000
2.700000 0.400000 0.000000
1.400000 0.500000 0.000000
1.500000 0.500000 0.000000
1.600000 0.500000 0.000000
1.700000 0.500000 0.000000
1.800000 0.500000 0.000000
1.900000 0.500000 0.000000
2.000000 0.500000 0.000000
2.100000 0.500000 0.000000
2.200000 0.500000 0.000000
2.300000 0.500000 0.000000
2.400000 0.500000 0.000000
2.500000 0.500000 0.000000
2.600000 0.500000 0.000000
2.700000 0.500000 0.000000
1.400000 0.600000 0.000000
1.500000 0.600000 0.000000
1.600000 0.600000 0.000000
1.700000 0.600000 0.000000
1.800000 0.600000 0.000000
1.900000 0.600000 0.000000
2.000000 0.600000 0.000000
2.100000 0.600000 0.000000
2.200000 0.600000 0.000000
2.300000 0.600000 0.000000
2.400000 0.600000 0.000000
2.500000 0.600000 0.000000
2.600000 0.600000 0.000000
2.700000 0.600000 0.000000
1.400000 0.700000 0.000000
1.500000 0.700000 0.000000
1.600000 0.700000 0.000000
1.700000 0.700000 0.000000
1.800000 0.700000 0.000000
1.900000 0.700000 0.000000
2.000000 0.700000 0.000000
2.100000 0.700000 0.000000
2.200000 0.700000 0.000000
2.300000 0.700000 0.000000
2.400000 0.700000 0.000000
2.500000 0.700000 0.000000
2.600000 0.700000 0.000000
2.700000 0.700000 0.000000
1.400000 0.800000 0.000000
1.500000 0.800000 0.000000
1.600000 0.800000 0.000000
1.700000 0.800000 0.000000
1.800000 0.800000 0.000000
1.900000 0.800000 0.000000
2.000000 0.800000 0.000000
2.100000 0.800000 0.000000
2.200000 0.800000 0.000000
2.300000 0.800000 0.000000
2.400000 0.800000 0.000000
2.500000 0.800000 0.000000
2.600000 0.800000 0.000000
2.700000 0.800000 0.000000
1.400000 0.900000 0.000000
1.500000 0.900000 0.000000
1.600000 0.900000 0.000000
1.700000 0.900000 0.000000
1.800000 0.900000 0.000000
1.900000 0.900000 0.000000
2.000000 0.900000 0.000000
2.100000 0.900000 0.000000
2.200000 0.900000 0.000000
2.300000 0.900000 0.000000
2.400000 0.900000 0.000000
2.500000 0.900000 0.000000
2.600000 0.900000 0.000000
2.700000 0.900000 0.000000
1.400000 1.000000 0.000000
1.500000 1.000000 0.000000
1.600000 1.000000 0.000000
1.700000 1.000000 0.000000
1.800000 1.000000 0.000000
1.900000 1.000000 0.000000
2.000000 1.000000 0.000000
2.100000 1.000000 0.000000
2.200000 1.000000 0.000000
2.300000 1.000000 0.000000
2.400000 1.000000 0.000000
2.500000 1.000000 0.000000
2.600000 1.000000 0.000000
2.700000 1.000000 0.000000
1.400000 0.000000 0.100000
1.500000 0.000000 0.100000
1.600000 0.000000 0.100000
1.700000 0.000000 0.100000
1.800000 0.000000 0.100000
1.900000 0.000000 0.100000
2.000000 0.000000 0.100000
2.100000 0.000000 0.100000
2.200000 0.000000 0.100000
2.300000 0.000000 0.100000
2.400000 0.000000 0.100000
2.500000 0.000000 0.100000
2.600000 0.000000 0.100000
2.700000 0.000000 0.100000
1.400000 0.100000 0.100000
1.500000 0.100000 0.100000
1.600000 0.100000 0.100000
1.700000 0.100000 0.100000
1.800000 0.100000 0.100000
1.900000 0.100000 0.100000
2.000000 0.100000 0.100000
2.100000 0.100000 0.100000
2.200000 0.100000 0.100000
2.300000 0.100000 0.100000
2.400000 0.100000 0.100000
2.500000 0.100000 0.100000
2.600000 0.100000 0.100000
2.700000 0.100000 0.100000
1.400000 0.200000 0.100000
1.500000 0.200000 0.100000
1.600000 0.200000 0.100000
1.700000 0.200000 0.100000
1.800000 0.200000 0.100000
1.900000 0.200000 0.100000
2.000000 0.200000 0.100000
2.100000 0.200000 0.100000
2.200000 0.200000 0.100000
2.300000 0.200000 0.100000
2.400000 0.200000 0.100000
2.500000 0.200000 0.100000
2.600000 0.200000 0.100000
2.700000 0.200000 0.100000
1.400000 0.300000 0.100000
1.500000 0.300000 0.100000
1.600000 0.300000 0.100000
1.700000 0.300000 0.100000
1.800000 0.300000 0.100000
1.900000 0.300000 0.100000
2.000000 0.300000 0.100000
2.100000 0.300000 0.100000
2.200000 0.300000 0.100000
2.300000 0.300000 0.100000
2.400000 0.300000 0.100000
2.500000 0.300000 0.100000
2.600000 0.300000 0.100000
2.700000 0.300000 0.100000
1.400000 0.400000 0.100000
1.500000 0.400000 0.100000
1.600000 0.400000 0.100000
1.700000 0.400000 0.100000
1.800000 0.400000 0.100000
1.900000 0.400000 0.100000
2.000000 0.400000 0.100000
2.100000 0.400000 0.100000
2.200000 0.400000 0.100000
2.300000 0.400000 0.100000
2.400000 0.400000 0.100000
2.500000 0.400000 0.100000
2.600000 0.400000 0.100000
2.700000 0.400000 0.100000
1.400000 0.500000 0.100000
1.500000 0.500000 0.100000
1.600000 0.500000 0.100000
1.700000 0.500000 0.100000
1.800000 0.500000 0.100000
1.900000 0.500000 0.100000
2.000000 0.500000 0.100000
2.100000 0.500000 0.100000
2.200000 0.500000 0.100000
2.300000 0.500000 0.100000
2.400000 0.500000 0.100000
2.500000 0.500000 0.100000
2.600000 0.500000 0.100000
2.700000 0.500000 0.100000
1.400000 0.600000 0.100000
1.500000 0.600000 0.100000
1.600000 0.600000 0.100000
1.700000 0.600000 0.100000
1.800000 0.600000 0.100000
1.900000 0.600000 0.100000
2.000000 0.600000 0.100000
2.100000 0.600000 0.100000
2.200000 0.600000 0.100000
2.300000 0.600000 0.100000
2.400000 0.600000 0.100000
2.500000 0.600000 0.100000
2.600000 0.600000 0.100000
2.700000 0.600000 0.100000
1.400000 0.700000 0.100000
1.500000 0.700000 0.100000
1.600000 0.700000 0.100000
1.700000 0.700000 0.100000
1.800000 0.700000 0.100000
1.900000 0.700000 0.100000
2.000000 0.700000 0.100000
2.100000 0.700000 0.100000
2.200000 0.700000 0.100000
2.300000 0.700000 0.100000
2.400000 0.700000 0.100000
2.500000 0.700000 0.100000
2.600000 0.700000 0.100000
2.700000 0.700000 0.100000
1.400000 0.800000 0.100000
1.500000 0.800000 0.100000
1.600000 0.800000 0.100000
1.700000 0.800000 0.100000
1.800000 0.800000 0.100000
1.900000 0.800000 0.100000
2.000000 0.800000 0.100000
2.100000 0.800000 0.100000
2.200000 0.800000 0.100000
2.300000 0.800000 0.100000
2.400000 0.800000 0.100000
2.500000 0.800000 0.100000
2.600000 0.800000 0.100000
2.700000 0.800000 0.100000
1.400000 0.900000 0.100000
1.500000 0.900000 0.100000
1.600000 0.900000 0.100000
1.700000 0.900000 0.100000
1.800000 0.900000 0.100000
1.900000 0.900000 0.100000
2.000000 0.900000 0.100000
2.100000 0.900000 0.100000
2.200000 0.900000 0.100000
2.300000 0.900000 0.100000
2.400000 0.900000 0.100000
2.500000 0.900000 0.100000
2.600000 0.900000 0.100000
2.700000 0.900000 0.100000
1.400000 1.000000 0.100000
1.500000 1.000000 0.100000
1.600000 1.000000 0.100000
1.700000 1.000000 0.100000
1.800000 1.000000 0.100000
1.900000 1.000000 0.100000
2.000000 1.000000 0.100000
2.100000 1.000000 0.100000
2.200000 1.000000 0.100000
2.300000 1.000000 0.100000
2.400000 1.000000 0.100000
2.500000 1.000000 0.100000
2.600000 1.000000 0.100000
2.700000 1.000000 0.100000
1.400000 0.000000 0.200000
1.500000 0.000000 0.200000
1.600000 0.000000 0.200000
1.700000 0.000000 0.200000
1.800000 0.000000 0.200000
1.900000 0.000000 0.200000
2.000000 0.000000 0.200000
2.100000 0.000000 0.200000
2.200000 0.000000 0.200000
2.300000 0.000000 0.200000
2.400000 0.000000 0.200000
2.500000 0.000000 0.200000
2.600000 0.000000 0.200000
2.700000 0.000000 0.200000
1.400000 0.100000 0.200000
1.500000 0.100000 0.200000
1.600000 0.100000 0.200000
1.700000 0.100000 0.200000
1.800000 0.100000 0.200000
1.900000 0.100000 0.200000
2.000000 0.100000 0.200000
2.100000 0.100000 0.200000
2.200000 0.100000 0.200000
2.300000 0.100000 0.200000
2.400000 0.100000 0.200000
2.500000 0.100000 0.200000
2.600000 0.100000 0.200000
2.700000 0.100000 0.200000
1.400000 0.200000 0.200000
1.500000 0.200000 0.200000
1.600000 0.200000 0.200000
1.700000 0.200000 0.200000
1.800000 0.200000 0.200000
1.900000 0.200000 0.200000
2.000000 0.200000 0.200000
2.100000 0.200000 0.200000
2.200000 0.200000 0.200000
2.300000 0.200000 0.200000
2.400000 0.200000 0.200000
2.500000 0.200000 0.200000
2.600000 0.200000 0.200000
2.700000 0.200000 0.200000
1.400000 0.300000 0.200000
1.500000 0.300000 0.200000
1.600000 0.300000 0.200000
1.700000 0.300000 0.200000
1.800000 0.300000 0.200000
1.900000 0.300000 0.200000
2.000000 0.300000 0.200000
2.100000 0.300000 0.200000
2.200000 0.300000 0.200000
2.300000 0.300000 0.200000
2.400000 0.300000 0.200000
2.500000 0.300000 0.200000
2.600000 0.300000 0.200000
2.700000 0.300000 0.200000
1.400000 0.400000 0.200000
[...]
CELL_DATA 2600
SCALARS pressure float 1
LOOKUP_TABLE default
21.1938
20.0071
18.8309
17.6823
16.5746
15.5169
14.5135
13.5645
12.6666
11.8144
11.0009
10.2192
9.46262
21.1932
20.006
18.8293
17.6803
16.5725
15.5148
14.5117
13.5631
12.6657
11.8139
11.0008
10.2194
9.46294
21.1917
19.9976
18.8143
17.6602
16.5491
15.4902
14.4877
13.5411
12.6466
11.798
10.9882
10.2097
9.45578
21.1896
19.9817
18.7858
17.622
16.505
15.4439
14.4424
13.4995
12.6104
11.7679
10.9641
10.1911
9.4419
21.1873
19.9587
18.7445
17.567
16.4417
15.3776
14.378
13.4405
12.5592
11.7255
10.9303
10.1651
9.4224
21.1849
19.9299
18.6931
17.4991
16.364
15.2966
14.2995
13.3691
12.4975
11.6745
10.8898
10.134
9.3992
21.1821
19.8981
18.6368
17.4254
16.28
15.2095
14.2155
13.293
12.432
11.6207
10.8472
10.1014
9.375
21.1791
19.8674
18.5833
17.3557
16.2011
15.1279
14.1372
13.2223
12.3715
11.5712
10.8082
10.0716
9.35294
21.1765
19.8429
18.541
17.301
16.1393
15.0643
14.0763
13.1675
12.3248
11.5331
10.7783
10.0489
9.33611
21.1751
19.8295
18.5177
17.2709
16.1054
15.0294
14.0429
13.1376
12.2993
11.5123
10.762
10.0365
9.32698
21.1965
20.0077
18.8301
17.6806
16.5725
15.5147
14.5115
13.5629
12.6656
11.8138
11.0007
10.2193
9.46288
21.1939
20.0116
18.84
17.6955
16.591
15.5354
14.533
13.5838
12.685
11.831
11.0156
10.2317
9.47288
21.1917
20.0078
18.8346
17.689
16.5842
15.529
14.5274
13.5794
12.6818
11.8291
11.0146
10.2315
9.47328
21.1897
19.9965
18.8151
17.6634
16.5551
15.4988
14.4984
13.5532
12.6595
11.8109
11.0005
10.2209
9.46562
21.1878
19.9786
18.7831
17.6213
16.507
15.4487
14.45
13.5092
12.6215
11.7796
10.9757
10.202
9.45161
21.186
19.9554
18.7418
17.567
16.4451
15.3845
14.388
13.4529
12.5729
11.7395
10.9439
10.1776
9.43346
21.1842
19.9293
18.6959
17.5071
16.3771
15.3141
14.3203
13.3916
12.5202
11.6962
10.9095
10.1512
9.41384
21.1822
19.904
18.6519
17.4502
16.3127
15.2477
14.2566
13.3342
12.471
11.6558
10.8776
10.1268
9.39566
21.1804
19.8839
18.6171
17.4054
16.2622
15.1958
14.207
13.2896
12.4329
11.6246
10.853
10.108
9.38169
21.1795
19.8729
18.598
17.3808
16.2345
15.1674
14.1798
13.2652
12.4121
11.6076
10.8396
10.0978
9.37408
21.205
20.0058
18.8191
17.6629
16.5506
15.4909
14.488
13.5411
12.6465
11.7979
10.9881
10.2096
9.45566
21.2004
20.0135
18.8382
17.6913
16.5856
15.5298
14.5278
13.5796
12.6819
11.8292
11.0146
10.2315
9.47326
21.1979
20.0129
18.8397
17.6949
16.5913
15.5372
14.5365
13.5891
12.6917
11.8386
11.0235
10.2394
9.48009
21.1963
20.0039
18.8246
17.6761
16.5708
15.517
14.5181
13.5735
12.6793
11.8295
11.0171
10.2353
9.47774
21.1952
19.9867
18.7947
17.6378
16.5282
15.4737
14.4773
13.5375
12.6492
11.8055
10.9988
10.2218
9.46817
21.1943
19.9625
18.753
17.5848
16.469
15.4134
14.4203
13.487
12.6067
11.7713
10.9723
10.202
9.45377
21.1932
19.9334
18.7044
17.5241
16.4014
15.3446
14.3556
13.4298
12.5587
11.7327
10.9423
10.1795
9.43731
21.1914
19.9037
18.6562
17.4648
16.3356
15.2779
14.2932
13.3749
12.5129
11.6959
10.9139
10.1581
9.42165
21.189
19.8795
18.6174
17.4172
16.2831
15.225
14.2439
13.3318
12.477
11.6673
10.8917
10.1414
9.40945
21.1875
19.8662
18.596
17.3908
16.2541
15.1958
14.2168
13.3081
12.4573
11.6515
10.8796
10.1323
9.40276
21.2166
19.9991
18.7967
17.6287
16.5089
15.4461
14.4436
13.5001
12.6106
11.768
10.9641
10.1911
9.44179
21.21
20.0102
18.8241
17.6692
16.5588
15.5011
14.4997
13.5541
12.6599
11.8112
11.0006
10.2209
9.46562
21.207
20.0113
18.8297
17.6794
16.573
15.5184
14.519
13.5741
12.6797
11.8297
11.0172
10.2354
9.47777
21.2058
20.0012
18.8139
17.6613
16.5547
15.5017
14.5054
13.5642
12.6735
11.8266
11.0166
10.2364
9.47968
21.2053
19.979
18.7776
17.6175
16.5077
15.4555
14.4636
13.5292
12.6459
11.8061
11.002
10.2265
9.47341
21.2049
19.9444
18.7232
17.5531
16.4377
15.3861
14.4005
13.4756
12.603
11.7732
10.9778
10.2093
9.46154
21.2034
19.8986
18.6563
17.4764
16.354
15.3029
14.3251
13.4121
12.5523
11.7343
10.949
10.1885
9.44695
21.199
19.8476
18.5872
17.3993
16.2692
15.2192
14.2501
13.3495
12.5026
11.6964
10.9208
10.1682
9.43264
21.1921
19.8058
18.5299
17.3351
16.1998
15.1513
14.1898
13.2995
12.4631
11.6664
10.8986
10.1522
9.4213
21.1875
19.7833
18.4982
17.299
16.161
15.1135
14.1563
13.2718
12.4414
11.6498
10.8864
10.1433
9.41505
21.2283
19.9859
18.7621
17.5782
16.4486
15.3818
14.3805
13.442
12.56
11.7259
10.9305
10.1651
9.42237
21.2199
20.0007
18.7981
17.6311
16.5133
15.4528
14.4526
13.5108
12.6225
11.7802
10.976
10.2021
9.4517
21.2165
20.0018
18.8052
17.6449
16.5329
15.4768
14.4794
13.5388
12.65
11.806
10.9991
10.222
9.46829
21.2153
19.9863
18.7827
17.6211
16.5101
15.4572
14.4648
13.5299
12.6464
11.8064
11.0023
10.2267
9.4735
21.2148
19.9503
18.7296
17.5617
16.448
15.3977
14.4133
13.4892
12.6165
11.786
10.9892
10.219
9.46952
21.2137
19.8885
18.6466
17.4724
16.3518
15.3041
14.3314
13.4234
12.5668
11.7502
10.9645
10.2026
9.4591
21.208
19.7955
18.5397
17.365
16.2311
15.1859
14.2295
13.3425
12.5061
11.7064
10.9339
10.1818
9.44535
21.191
19.6798
18.4253
17.2564
16.1022
15.0608
14.1241
13.2605
12.4454
11.6629
10.9034
10.161
9.43144
21.1662
19.5904
18.3271
17.1583
15.9935
14.9577
14.0379
13.1941
12.3965
11.628
10.8791
10.1444
9.42029
21.1516
19.5458
18.2738
17.1026
15.9325
14.9
13.9899
13.1571
12.3694
11.6087
10.8657
10.1352
9.41409
21.2381
19.9659
18.7168
17.5144
16.3737
15.3028
14.3033
13.3714
12.4989
11.6753
10.8902
10.1342
9.39929
21.2285
19.9851
18.7622
17.5806
16.4541
15.3904
14.3918
13.4554
12.5745
11.7405
10.9445
10.1779
9.43367
21.2245
19.9842
18.7682
17.5954
16.4762
15.4182
14.4236
13.4892
12.6082
11.7722
10.9729
10.2024
9.45403
21.2227
19.9575
18.7326
17.5597
16.4424
15.3894
14.4027
13.4772
12.6041
11.774
10.9783
10.2096
9.46176
21.2207
19.8937
18.6504
17.4753
16.3539
15.3056
14.3326
13.4242
12.5674
11.7506
10.9648
10.2028
9.45923
21.2139
19.7703
18.5183
17.3502
16.2126
15.1686
14.2177
13.3368
12.5052
11.7085
10.9375
10.186
9.44943
21.1865
19.5498
18.3433
17.2084
16.0227
14.9839
14.0679
13.2261
12.4274
11.6559
10.9029
10.1639
9.43573
21.1069
19.2219
18.1569
17.0835
15.7969
14.7732
13.9059
13.1106
12.3482
11.6028
10.868
10.1414
9.42157
21.0065
19.0113
17.9802
16.9306
15.6057
14.5995
13.7727
13.0162
12.2839
11.5599
10.8399
10.1233
9.4101
20.9606
18.9239
17.8907
16.8441
15.4996
14.5035
13.6988
12.9637
12.2482
11.5362
10.8244
10.1132
9.40369
21.2445
19.9407
18.6653
17.444
16.2921
15.2173
14.2205
13.2962
12.434
11.622
10.848
10.1018
9.37524
21.2345
19.965
18.7205
17.5238
16.3883
15.3216
14.3252
13.3949
12.5224
11.6976
10.9104
10.1518
9.4142
21.2298
19.9601
18.7233
17.5373
16.4106
15.3509
14.3599
13.4327
12.5607
11.734
10.9433
10.1801
9.43771
21.2259
19.9154
18.6685
17.4852
16.3604
15.3075
14.3284
13.4145
12.5539
11.7355
10.9498
10.1891
9.44733
21.2176
19.8029
18.5454
17.3694
16.2346
15.1886
14.2316
13.3441
12.5073
11.7073
10.9345
10.1822
9.44563
21.1868
19.5501
18.3439
17.2093
16.0238
14.985
14.0689
13.2268
12.428
11.6563
10.9032
10.1641
9.43588
21.0587
18.9792
18.0847
17.0828
15.6992
14.6826
13.8447
13.0737
12.3274
11.5919
10.8631
10.1398
9.42173
20.6329
17.8309
17.8859
17.054
15.1912
14.2898
13.587
12.9092
12.2232
11.5264
10.8224
10.1149
9.40692
20.1867
17.3519
17.5638
16.7442
14.8119
13.9821
13.3777
12.7746
12.1384
11.4735
10.7896
10.0948
9.39484
20.05
17.2179
17.4296
16.6161
14.6097
13.8165
13.2629
12.7
12.0913
11.444
10.7713
10.0837
9.38809
21.2475
19.9144
18.6148
17.3766
16.2148
15.1369
14.1431
13.2262
12.3741
11.5728
10.8093
10.0723
9.35334
21.2377
19.9436
18.6794
17.4691
16.3256
15.2564
14.2625
13.3382
12.4737
11.6576
10.8788
10.1276
9.39619
21.2318
19.9334
18.6775
17.4798
16.3462
15.2854
14.2984
13.3786
12.5154
11.6977
10.9151
10.1589
9.42221
21.2234
19.8659
18.6008
17.4094
16.2767
15.2248
14.2542
13.3525
12.5048
11.6979
10.9219
10.169
9.43317
21.199
19.6861
18.4306
17.261
16.1063
15.0643
14.1269
13.2627
12.447
11.6641
10.9043
10.1616
9.43189
21.098
19.2157
18.1534
17.0827
15.798
14.7749
13.9076
13.112
12.3493
11.6036
10.8686
10.1418
9.42189
20.606
17.811
17.8728
17.0485
15.1905
14.2904
13.5877
12.9098
12.2238
11.5269
10.8227
10.1151
9.40709
0.0
0.0
0.0
0.0
13.5791
13.5206
13.1926
12.6862
12.0921
11.4483
10.776
10.0878
9.39149
0.0
0.0
0.0
0.0
12.718
12.9943
12.8825
12.5045
11.9848
11.3847
10.7383
10.0656
9.37874
0.0
0.0
0.0
0.0
12.2823
12.719
12.7154
12.4045
11.9253
11.3493
10.7173
10.0533
9.37161
21.2481
19.8924
18.5743
17.3232
16.1541
15.0741
14.0829
13.172
12.3278
11.5351
10.7796
10.0498
9.33667
21.2388
19.9257
18.6464
17.4256
16.2761
15.2053
14.2135
13.2941
12.4361
11.6268
10.8545
10.109
9.38237
21.2313
19.9108
18.64
17.4333
16.2946
15.2332
14.2497
13.336
12.48
11.6693
10.8932
10.1425
9.41016
21.2169
19.8247
18.544
17.3457
16.208
15.1575
14.1945
13.303
12.4657
11.6682
10.9
10.1531
9.42199
21.1722
19.5955
18.3316
17.1628
15.998
14.9617
14.0413
13.1968
12.3986
11.6296
10.8803
10.1452
9.4209
20.9925
19.0016
17.9743
16.9286
15.6069
14.6018
13.775
13.0182
12.2855
11.5611
10.8408
10.1239
9.41058
20.1527
17.3267
17.546
16.7367
14.8122
13.9837
13.3792
12.7759
12.1394
11.4742
10.7901
10.0953
9.39518
0.0
0.0
0.0
0.0
12.7245
12.9965
12.8836
12.5052
11.9853
11.3851
10.7386
10.0659
9.37891
0.0
0.0
0.0
0.0
11.492
12.3266
12.4969
12.2854
11.8597
11.3128
10.6969
10.0421
9.36561
0.0
0.0
0.0
0.0
10.9308
11.9782
12.2895
12.1649
11.7901
11.2726
10.6738
10.0288
9.35818
21.248
19.88
18.5519
17.2938
16.1207
15.0397
14.05
13.1424
12.3026
11.5146
10.7636
10.0376
9.32768
21.239
19.9157
18.6281
17.4016
16.249
15.1774
14.1868
13.2701
12.4156
11.61
10.8413
10.0989
9.37489
21.2305
19.8982
18.6191
17.4074
16.266
15.2045
14.223
13.3126
12.4606
11.6539
10.8812
10.1335
9.40361
21.2122
19.8022
18.5125
17.3099
16.1695
15.1201
14.1613
13.2757
12.4442
11.6519
10.8879
10.1444
9.41588
21.1564
19.5502
18.2779
17.1068
15.9371
14.9044
13.9937
13.1602
12.3718
11.6105
10.867
10.1362
9.41484
20.9442
18.9126
17.8836
16.8414
15.5009
14.5061
13.7015
12.9661
12.2501
11.5376
10.8255
10.1141
9.40433
20.0135
17.191
17.41
16.607
14.6103
13.8187
13.265
12.7018
12.0927
11.4451
10.7722
10.0843
9.38859
0.0
0.0
0.0
0.0
12.2911
12.7227
12.7174
12.4058
11.9263
11.3501
10.7179
10.0537
9.37195
0.0
0.0
0.0
0.0
10.9351
11.9802
12.2905
12.1656
11.7907
11.273
10.674
10.029
9.35835
0.0
0.0
0.0
0.0
10.3147
11.5943
12.0619
12.0339
11.7156
11.2302
10.6497
10.0153
9.35075
21.2484
19.8803
18.5522
17.2941
16.1209
15.0399
14.0501
13.1425
12.3028
11.5147
10.7637
10.0376
9.32772
21.2394
19.916
18.6284
17.4019
16.2492
15.1775
14.187
13.2702
12.4157
11.6101
10.8414
10.099
9.37493
21.2309
19.8985
18.6194
17.4077
16.2662
15.2046
14.2231
13.3128
12.4607
11.6539
10.8813
10.1335
9.40365
21.2126
19.8025
18.5128
17.3102
16.1697
15.1203
14.1615
13.2758
12.4443
11.652
10.888
10.1445
9.41592
21.1568
19.5506
18.2783
17.1072
15.9374
14.9047
13.9939
13.1604
12.3719
11.6106
10.8671
10.1362
9.41488
20.9446
18.913
17.8842
16.842
15.5014
14.5066
13.7018
12.9663
12.2502
11.5378
10.8256
10.1141
9.40438
20.0138
17.1916
17.4112
16.6082
14.6115
13.8195
13.2655
12.7021
12.0929
11.4453
10.7723
10.0844
9.38864
0.0
0.0
0.0
0.0
12.2938
12.7242
12.7182
12.4062
11.9265
11.3502
10.718
10.0538
9.372
0.0
0.0
0.0
0.0
10.9414
11.9827
12.2916
12.1661
11.7909
11.2732
10.6742
10.0291
9.3584
0.0
0.0
0.0
0.0
10.3207
11.5968
12.063
12.0345
11.7159
11.2304
10.6498
10.0154
9.3508
21.2492
19.8934
18.5752
17.324
16.1548
15.0747
14.0833
13.1724
12.3281
11.5353
10.7798
10.0499
9.33679
21.2397
19.9266
18.6472
17.4263
16.2767
15.2059
14.214
13.2945
12.4363
11.627
10.8547
10.1091
9.38248
21.2323
19.9117
18.6408
17.434
16.2952
15.2338
14.2502
13.3364
12.4803
11.6696
10.8934
10.1426
9.41028
21.2179
19.8256
18.5449
17.3465
16.2087
15.1581
14.1949
13.3034
12.466
11.6685
10.9002
10.1533
9.42211
21.1733
19.5965
18.3327
17.1638
15.9989
14.9625
14.0419
13.1973
12.3989
11.6298
10.8805
10.1454
9.42101
20.9937
19.0028
17.9757
16.9302
15.6084
14.603
13.7758
13.0188
12.2859
11.5614
10.8411
10.1241
9.41071
20.1539
17.3278
17.5485
16.7398
14.8151
13.9857
13.3805
12.7767
12.14
11.4746
10.7904
10.0955
9.39532
0.0
0.0
0.0
0.0
12.731
13.0003
12.8856
12.5063
11.986
11.3855
10.7388
10.0661
9.37906
0.0
0.0
0.0
0.0
11.5066
12.3327
12.4996
12.2868
11.8605
11.3132
10.6972
10.0423
9.36576
0.0
0.0
0.0
0.0
10.9449
11.9842
12.2922
12.1663
11.7909
11.2731
10.6741
10.029
9.35833
21.2492
19.9159
18.6162
17.3778
16.2159
15.1378
14.1438
13.2268
12.3745
11.5732
10.8096
10.0726
9.35352
21.2392
19.945
18.6807
17.4702
16.3265
15.2572
14.2632
13.3388
12.4742
11.658
10.8791
10.1278
9.39637
21.2333
19.9348
18.6787
17.4809
16.3471
15.2862
14.2991
13.3791
12.5159
11.6981
10.9154
10.1591
9.42239
21.2249
19.8674
18.6021
17.4105
16.2778
15.2256
14.2549
13.3531
12.5052
11.6983
10.9222
10.1692
9.43335
21.2008
19.6878
18.4321
17.2624
16.1076
15.0654
14.1278
13.2634
12.4476
11.6645
10.9046
10.1619
9.43208
21.1002
19.2175
18.1552
17.0846
15.7999
14.7764
13.9087
13.1128
12.3499
11.604
10.869
10.1421
9.42209
20.6088
17.8128
17.8751
17.0519
15.194
14.2928
13.5894
12.9109
12.2245
11.5274
10.8231
10.1154
9.4073
0.0
0.0
0.0
0.0
13.5868
13.5249
13.195
12.6877
12.093
11.449
10.7764
10.0881
9.39171
0.0
0.0
0.0
0.0
12.7335
13.001
12.8857
12.5062
11.9858
11.3854
10.7387
10.066
9.37897
0.0
0.0
0.0
0.0
12.2975
12.7257
12.7187
12.4062
11.9263
11.35
10.7178
10.0536
9.37185
21.2467
19.9427
18.6671
17.4456
16.2935
15.2184
14.2215
13.2969
12.4347
11.6225
10.8484
10.1022
9.37548
21.2365
19.9668
18.7222
17.5253
16.3896
15.3227
14.3261
13.3956
12.523
11.6981
10.9108
10.1521
9.41444
21.2317
19.9619
18.7249
17.5387
16.4118
15.3519
14.3608
13.4335
12.5613
11.7345
10.9436
10.1804
9.43795
21.228
19.9172
18.6702
17.4867
16.3616
15.3086
14.3293
13.4152
12.5545
11.736
10.9501
10.1894
9.44756
21.22
19.805
18.5471
17.3709
16.2359
15.1897
14.2325
13.3449
12.5079
11.7078
10.9349
10.1826
9.44588
21.1899
19.5526
18.3457
17.2106
16.0252
14.9863
14.07
13.2277
12.4288
11.6568
10.9036
10.1644
9.43614
21.0636
18.9829
18.0861
17.0823
15.7005
14.6842
13.8461
13.0748
12.3283
11.5926
10.8635
10.1401
9.422
20.6423
17.8393
17.8853
17.044
15.1919
14.2921
13.5889
12.9106
12.2242
11.5272
10.8229
10.1153
9.4072
20.196
17.3587
17.5621
16.7365
14.8144
13.9853
13.38
12.7762
12.1395
11.4742
10.7901
10.0952
9.39514
20.0588
17.2238
17.4277
16.6101
14.6124
13.8196
13.2652
12.7016
12.0924
11.4448
10.7719
10.0841
9.38839
21.2406
19.9682
18.7189
17.5163
16.3753
15.3041
14.3044
13.3723
12.4996
11.6759
10.8907
10.1345
9.39957
21.2308
19.9873
18.7641
17.5823
16.4556
15.3917
14.3928
13.4562
12.5752
11.7411
10.9449
10.1783
9.43395
21.2268
19.9863
18.7701
17.597
16.4776
15.4194
14.4246
13.49
12.6089
11.7728
10.9734
10.2028
9.4543
21.2251
19.9597
18.7345
17.5614
16.4438
15.3906
14.4038
13.4781
12.6048
11.7746
10.9788
10.21
9.46204
21.2234
19.8961
18.6524
17.4769
16.3554
15.3069
14.3336
13.4251
12.5682
11.7512
10.9653
10.2032
9.45951
21.2173
19.7731
18.5204
17.3517
16.214
15.1699
14.2189
13.3378
12.506
11.7092
10.938
10.1864
9.44973
21.1911
19.5532
18.3452
17.2091
16.0239
14.9853
14.0692
13.2272
12.4283
11.6566
10.9034
10.1643
9.43604
21.1132
19.2266
18.1582
17.0821
15.7976
14.7747
13.9074
13.1119
12.3492
11.6035
10.8686
10.1418
9.42189
21.0132
19.0159
17.9812
16.9292
15.6066
14.6013
13.7744
13.0176
12.285
11.5608
10.8406
10.1237
9.41043
20.9675
18.9283
17.8915
16.8429
15.5005
14.5052
13.7004
12.9651
12.2493
11.537
10.825
10.1137
9.40403
21.2311
19.9885
18.7644
17.5802
16.4503
15.3833
14.3817
13.443
12.5608
11.7265
10.931
10.1655
9.42267
21.2224
20.0031
18.8002
17.633
16.515
15.4542
14.4537
13.5118
12.6233
11.7808
10.9765
10.2025
9.452
21.219
20.0041
18.8072
17.6468
16.5345
15.4781
14.4805
13.5398
12.6508
11.8066
10.9996
10.2224
9.46859
21.2179
19.9886
18.7848
17.6229
16.5117
15.4585
14.4659
13.5309
12.6472
11.8071
11.0028
10.2271
9.47381
21.2177
19.9529
18.7318
17.5636
16.4496
15.3991
14.4145
13.4902
12.6173
11.7866
10.9897
10.2194
9.46983
21.217
19.8913
18.6488
17.4742
16.3534
15.3055
14.3327
13.4244
12.5677
11.7509
10.9651
10.2031
9.45942
21.212
19.7988
18.542
17.3666
16.2325
15.1873
14.2308
13.3436
12.5071
11.7072
10.9345
10.1823
9.44568
21.1958
19.6835
18.4275
17.2575
16.1035
15.0623
14.1254
13.2617
12.4464
11.6636
10.904
10.1615
9.43178
21.1714
19.5943
18.3292
17.1593
15.9948
14.9591
14.0394
13.1953
12.3975
11.6288
10.8798
10.1449
9.42064
21.1571
19.5498
18.276
17.1035
15.9336
14.9014
13.9913
13.1583
12.3704
11.6095
10.8663
10.1357
9.41444
21.2194
20.0017
18.7991
17.6308
16.5107
15.4476
14.4449
13.5012
12.6115
11.7687
10.9646
10.1915
9.44211
21.2126
20.0127
18.8263
17.6712
16.5605
15.5025
14.501
13.5551
12.6608
11.8118
11.0011
10.2214
9.46594
21.2096
20.0137
18.8319
17.6814
16.5747
15.5198
14.5202
13.5751
12.6805
11.8303
11.0178
10.2358
9.47809
21.2085
20.0037
18.8161
17.6632
16.5564
15.5031
14.5066
13.5652
12.6743
11.8273
11.0171
10.2368
9.47999
21.2082
19.9817
18.7799
17.6195
16.5094
15.4569
14.4648
13.5302
12.6467
11.8068
11.0026
10.227
9.47373
21.2082
19.9473
18.7256
17.5551
16.4395
15.3876
14.4017
13.4767
12.6039
11.7739
10.9784
10.2097
9.46186
21.2071
19.9018
18.6589
17.4784
16.3557
15.3044
14.3264
13.4132
12.5532
11.7351
10.9495
10.1889
9.44728
21.2032
19.8511
18.5898
17.4013
16.2709
15.2207
14.2515
13.3507
12.5035
11.6972
10.9214
10.1687
9.43297
21.1966
19.8095
18.5326
17.337
16.2015
15.1528
14.1911
13.3007
12.4641
11.6671
10.8992
10.1526
9.42165
21.1923
19.7871
18.501
17.3009
16.1626
15.115
14.1576
13.273
12.4423
11.6506
10.887
10.1438
9.41539
21.2078
20.0084
18.8216
17.665
16.5524
15.4925
14.4892
13.5422
12.6474
11.7986
10.9886
10.21
9.45598
21.2031
20.016
18.8405
17.6933
16.5874
15.5313
14.5291
13.5807
12.6828
11.8298
11.0152
10.2319
9.47357
21.2006
20.0154
18.8419
17.6969
16.593
15.5387
14.5378
13.5902
12.6925
11.8393
11.024
10.2398
9.4804
21.1991
20.0065
18.8269
17.6781
16.5726
15.5185
14.5194
13.5746
12.6802
11.8301
11.0176
10.2357
9.47805
21.1982
19.9895
18.7972
17.64
16.53
15.4752
14.4786
13.5385
12.65
11.8061
10.9993
10.2222
9.46847
21.1976
19.9655
18.7556
17.587
16.4709
15.4149
14.4216
13.4881
12.6076
11.772
10.9728
10.2024
9.45408
21.1969
19.9367
18.7071
17.5264
16.4033
15.3462
14.3569
13.4309
12.5596
11.7334
10.9429
10.1799
9.43762
21.1954
19.9073
18.6591
17.4671
16.3375
15.2795
14.2945
13.3761
12.5138
11.6967
10.9144
10.1585
9.42196
21.1933
19.8833
18.6204
17.4196
16.285
15.2266
14.2453
13.333
12.4779
11.668
10.8923
10.1419
9.40976
21.192
19.8702
18.5991
17.3932
16.256
15.1974
14.2181
13.3092
12.4582
11.6523
10.8801
10.1327
9.40307
21.1993
20.0104
18.8325
17.6827
16.5743
15.5163
14.5128
13.564
12.6664
11.8145
11.0012
10.2197
9.46318
21.1966
20.0142
18.8424
17.6975
16.5928
15.537
14.5342
13.5849
12.6858
11.8317
11.0161
10.2321
9.47319
21.1944
20.0103
18.8369
17.6911
16.586
15.5305
14.5286
13.5804
12.6827
11.8298
11.0152
10.2319
9.47358
21.1925
19.9992
18.8175
17.6655
16.5569
15.5003
14.4996
13.5543
12.6603
11.8116
11.001
10.2213
9.4659
21.1908
19.9814
18.7857
17.6235
16.5088
15.4503
14.4512
13.5103
12.6223
11.7803
10.9762
10.2023
9.45189
21.1894
19.9585
18.7445
17.5693
16.447
15.3861
14.3893
13.4539
12.5738
11.7402
10.9444
10.1779
9.43373
21.1879
19.9327
18.6988
17.5096
16.3791
15.3158
14.3216
13.3927
12.5211
11.6969
10.91
10.1516
9.41411
21.1863
19.9077
18.655
17.4527
16.3148
15.2494
14.2579
13.3353
12.4719
11.6565
10.8781
10.1272
9.39593
21.1849
19.8878
18.6204
17.408
16.2643
15.1975
14.2084
13.2907
12.4338
11.6253
10.8535
10.1084
9.38196
21.1842
19.877
18.6014
17.3834
16.2366
15.169
14.1812
13.2663
12.413
11.6083
10.8401
10.0981
9.37434
21.1965
20.0096
18.8333
17.6843
16.5764
15.5184
14.5147
13.5655
12.6675
11.815
11.0015
10.2196
9.46292
21.1959
20.0085
18.8316
17.6823
16.5742
15.5163
14.5129
13.5641
12.6665
11.8145
11.0013
10.2198
9.46322
21.1944
20.0002
18.8167
17.6622
16.5508
15.4917
14.4889
13.5421
12.6474
11.7986
10.9887
10.2101
9.45604
21.1925
19.9844
18.7882
17.6241
16.5067
15.4453
14.4436
13.5005
12.6111
11.7685
10.9646
10.1915
9.44214
21.1905
19.9617
18.7471
17.5692
16.4435
15.3791
14.3792
13.4415
12.56
11.7261
10.9307
10.1654
9.42262
21.1885
19.9332
18.6959
17.5015
16.3659
15.2982
14.3008
13.3701
12.4982
11.6751
10.8902
10.1343
9.39941
21.1862
19.9017
18.6399
17.4279
16.2821
15.2111
14.2168
13.294
12.4328
11.6213
10.8477
10.1017
9.37521
21.1837
19.8714