# vtk DataFile Version 2.0
I need something to put here
ASCII

DATASET STRUCTURED_GRID
DIMENSIONS 14 11 21
POINTS 3234 float
2.700000 1.000000 0.000000
2.800000 1.000000 0.000000
2.900000 1.000000 0.000000
3.000000 1.000000 0.000000
3.100000 1.000000 0.000000
3.200000 1.000000 0.000000
3.300000 1.000000 0.000000
3.400000 1.000000 0.000000
3.500000 1.000000 0.000000
3.600000 1.000000 0.000000
3.700000 1.000000 0.000000
3.800000 1.000000 0.000000
3.900000 1.000000 0.000000
4.000000 1.000000 0.000000
2.700000 1.100000 0.000000
2.800000 1.100000 0.000000
2.900000 1.100000 0.000000
3.000000 1.100000 0.000000
3.100000 1.100000 0.000000
3.200000 1.100000 0.000000
3.300000 1.100000 0.000000
3.400000 1.100000 0.000000
3.500000 1.100000 0.000000
3.600000 1.100000 0.000000
3.700000 1.100000 0.000000
3.800000 1.100000 0.000000
3.900000 1.100000 0.000000
4.000000 1.100000 0.000000
2.700000 1.200000 0.000000
2.800000 1.200000 0.000000
2.900000 1.200000 0.000000
3.000000 1.200000 0.000000
3.100000 1.200000 0.000000
3.200000 1.200000 0.000000
3.300000 1.200000 0.000000
3.400000 1.200000 0.000000
3.500000 1.200000 0.000000
3.600000 1.200000 0.000000
3.700000 1.200000 0.000000
3.800000 1.200000 0.000000
3.900000 1.200000 0.000000
4.000000 1.200000 0.000000
2.700000 1.300000 0.000000
2.800000 1.300000 0.000000
2.900000 1.300000 0.000000
3.000000 1.300000 0.000000
3.100000 1.300000 0.000000
3.200000 1.300000 0.000000
3.300000 1.300000 0.000000
3.400000 1.300000 0.000000
3.500000 1.300000 0.000000
3.600000 1.300000 0.000000
3.700000 1.300000 0.000000
3.800000 1.300000 0.000000
3.900000 1.300000 0.000000
4.000000 1.300000 0.000000
2.700000 1.400000 0.000000
2.800000 1.400000 0.000000
2.900000 1.400000 0.000000
3.000000 1.400000 0.000000
3.100000 1.400000 0.000000
3.200000 1.400000 0.000000
3.300000 1.400000 0.000000
3.400000 1.400000 0.000000
3.500000 1.400000 0.000000
3.600000 1.400000 0.000000
3.700000 1.400000 0.000000
3.800000 1.400000 0.000000
3.900000 1.400000 0.000000
4.000000 1.400000 0.000000
2.700000 1.500000 0.000000
2.800000 1.500000 0.000000
2.900000 1.500000 0.000000
3.000000 1.500000 0.000000
3.100000 1.500000 0.000000
3.200000 1.500000 0.000000
3.300000 1.500000 0.000000
3.400000 1.500000 0.000000
3.500000 1.500000 0.000000
3.600000 1.500000 0.000000
3.700000 1.500000 0.000000
3.800000 1.500000 0.000000
3.900000 1.500000 0.000000
4.000000 1.500000 0.000000
2.700000 1.600000 0.000000
2.800000 1.600000 0.000000
2.900000 1.600000 0.000000
3.000000 1.600000 0.000000
3.100000 1.600000 0.000000
3.200000 1.600000 0.000000
3.300000 1.600000 0.000000
3.400000 1.600000 0.000000
3.500000 1.600000 0.000000
3.600000 1.600000 0.000000
3.700000 1.600000 0.000000
3.800000 1.600000 0.000000
3.900000 1.600000 0.000000
4.000000 1.600000 0.000000
2.700000 1.700000 0.000000
2.800000 1.700000 0.000000
2.900000 1.700000 0.000000
3.000000 1.700000 0.000000
3.100000 1.700000 0.000000
3.200000 1.700000 0.000000
3.300000 1.700000 0.000000
3.400000 1.700000 0.000000
3.500000 1.700000 0.000000
3.600000 1.700000 0.000000
3.700000 1.700000 0.000000
3.800000 1.700000 0.000000
3.900000 1.700000 0.000000
4.000000 1.700000 0.000000
2.700000 1.800000 0.000000
2.800000 1.800000 0.000000
2.900000 1.800000 0.000000
3.000000 1.800000 0.000000
3.100000 1.800000 0.000000
3.200000 1.800000 0.000000
3.300000 1.800000 0.000000
3.400000 1.800000 0.000000
3.500000 1.800000 0.000000
3.600000 1.800000 0.000000
3.700000 1.800000 0.000000
3.800000 1.800000 0.000000
3.900000 1.800000 0.000000
4.000000 1.800000 0.000000
2.700000 1.900000 0.000000
2.800000 1.900000 0.000000
2.900000 1.900000 0.000000
3.000000 1.900000 0.000000
3.100000 1.900000 0.000000
3.200000 1.900000 0.000000
3.300000 1.900000 0.000000
3.400000 1.900000 0.000000
3.500000 1.900000 0.000000
3.600000 1.900000 0.000000
3.700000 1.900000 0.000000
3.800000 1.900000 0.000000
3.900000 1.900000 0.000000
4.000000 1.900000 0.000000
2.700000 2.000000 0.000000
2.800000 2.000000 0.000000
2.900000 2.000000 0.000000
3.000000 2.000000 0.000000
3.100000 2.000000 0.000000
3.200000 2.000000 0.000000
3.300000 2.000000 0.000000
3.400000 2.000000 0.000000
3.500000 2.000000 0.000000
3.600000 2.000000 0.000000
3.700000 2.000000 0.000000
3.800000 2.000000 0.000000
3.900000 2.000000 0.000000
4.000000 2.000000 0.000000
2.700000 1.000000 0.100000
2.800000 1.000000 0.100000
2.900000 1.000000 0.100000
3.000000 1.000000 0.100000
3.100000 1.000000 0.100000
3.200000 1.000000 0.100000
3.300000 1.000000 0.100000
3.400000 1.000000 0.100000
3.500000 1.000000 0.100000
3.600000 1.000000 0.100000
3.700000 1.000000 0.100000
3.800000 1.000000 0.100000
3.900000 1.000000 0.100000
4.000000 1.000000 0.100000
2.700000 1.100000 0.100000
2.800000 1.100000 0.100000
2.900000 1.100000 0.100000
3.000000 1.100000 0.100000
3.100000 1.100000 0.100000
3.200000 1.100000 0.100000
3.300000 1.100000 0.100000
3.400000 1.100000 0.100000
3.500000 1.100000 0.100000
3.600000 1.100000 0.100000
3.700000 1.100000 0.100000
3.800000 1.100000 0.100000
3.900000 1.100000 0.100000
4.000000 1.100000 0.100000
2.700000 1.200000 0.100000
2.800000 1.200000 0.100000
2.900000 1.200000 0.100000
3.000000 1.200000 0.100000
3.100000 1.200000 0.100000
3.200000 1.200000 0.100000
3.300000 1.200000 0.100000
3.400000 1.200000 0.100000
3.500000 1.200000 0.100000
3.600000 1.200000 0.100000
3.700000 1.200000 0.100000
3.800000 1.200000 0.100000
3.900000 1.200000 0.100000
4.000000 1.200000 0.100000
2.700000 1.300000 0.100000
2.800000 1.300000 0.100000
2.900000 1.300000 0.100000
3.000000 1.300000 0.100000
3.100000 1.300000 0.100000
3.200000 1.300000 0.100000
3.300000 1.300000 0.100000
3.400000 1.300000 0.100000
3.500000 1.300000 0.100000
3.600000 1.300000 0.100000
3.700000 1.300000 0.100000
3.800000 1.300000 0.100000
3.900000 1.300000 0.100000
4.000000 1.300000 0.100000
2.700000 1.400000 0.100000
2.800000 1.400000 0.100000
2.900000 1.400000 0.100000
3.000000 1.400000 0.100000
3.100000 1.400000 0.100000
3.200000 1.400000 0.100000
3.300000 1.400000 0.100000
3.400000 1.400000 0.100000
3.500000 1.400000 0.100000
3.600000 1.400000 0.100000
3.700000 1.400000 0.100000
3.800000 1.400000 0.100000
3.900000 1.400000 0.100000
4.000000 1.400000 0.100000
2.700000 1.500000 0.100000
2.800000 1.500000 0.100000
2.900000 1.500000 0.100000
3.000000 1.500000 0.100000
3.100000 1.500000 0.100000
3.200000 1.500000 0.100000
3.300000 1.500000 0.100000
3.400000 1.500000 0.100000
3.500000 1.500000 0.100000
3.600000 1.500000 0.100000
3.700000 1.500000 0.100000
3.800000 1.500000 0.100000
3.900000 1.500000 0.100000
4.000000 1.500000 0.100000
2.700000 1.600000 0.100000
2.800000 1.600000 0.100000
2.900000 1.600000 0.100000
3.000000 1.600000 0.100000
3.100000 1.600000 0.100000
3.200000 1.600000 0.100000
3.300000 1.600000 0.100000
3.400000 1.600000 0.100000
3.500000 1.600000 0.100000
3.600000 1.600000 0.100000
3.700000 1.600000 0.100000
3.800000 1.600000 0.100000
3.900000 1.600000 0.100000
4.000000 1.600000 0.100000
2.700000 1.700000 0.100000
2.800000 1.700000 0.100000
2.900000 1.700000 0.100000
3.000000 1.700000 0.100000
3.100000 1.700000 0.100000
3.200000 1.700000 0.100000
3.300000 1.700000 0.100000
3.400000 1.700000 0.100000
3.500000 1.700000 0.100000
3.600000 1.700000 0.100000
3.700000 1.700000 0.100000
3.800000 1.700000 0.100000
3.900000 1.700000 0.100000
4.000000 1.700000 0.100000
2.700000 1.800000 0.100000
2.800000 1.800000 0.100000
2.900000 1.800000 0.100000
3.000000 1.800000 0.100000
3.100000 1.800000 0.100000
3.200000 1.800000 0.100000
3.300000 1.800000 0.100000
3.400000 1.800000 0.100000
3.500000 1.800000 0.100000
3.600000 1.800000 0.100000
3.700000 1.800000 0.100000
3.800000 1.800000 0.100000
3.900000 1.800000 0.100000
4.000000 1.800000 0.100000
2.700000 1.900000 0.100000
2.800000 1.900000 0.100000
2.900000 1.900000 0.100000
3.000000 1.900000 0.100000
3.100000 1.900000 0.100000
3.200000 1.900000 0.100000
3.300000 1.900000 0.100000
3.400000 1.900000 0.100000
3.500000 1.900000 0.100000
3.600000 1.900000 0.100000
3.700000 1.900000 0.100000
3.800000 1.900000 0.100000
3.900000 1.900000 0.100000
4.000000 1.900000 0.100000
2.700000 2.000000 0.100000
2.800000 2.000000 0.100000
2.900000 2.000000 0.100000
3.000000 2.000000 0.100000
3.100000 2.000000 0.100000
3.200000 2.000000 0.100000
3.300000 2.000000 0.100000
3.400000 2.000000 0.100000
3.500000 2.000000 0.100000
3.600000 2.000000 0.100000
3.700000 2.000000 0.100000
3.800000 2.000000 0.100000
3.900000 2.000000 0.100000
4.000000 2.000000 0.100000
2.700000 1.000000 0.200000
2.800000 1.000000 0.200000
2.900000 1.000000 0.200000
3.000000 1.000000 0.200000
3.100000 1.000000 0.200000
3.200000 1.000000 0.200000
3.300000 1.000000 0.200000
3.400000 1.000000 0.200000
3.500000 1.000000 0.200000
3.600000 1.000000 0.200000
3.700000 1.000000 0.200000
3.800000 1.000000 0.200000
3.900000 1.000000 0.200000
4.000000 1.000000 0.200000
2.700000 1.100000 0.200000
2.800000 1.100000 0.200000
2.900000 1.100000 0.200000
3.000000 1.100000 0.200000
3.100000 1.100000 0.200000
3.200000 1.100000 0.200000
3.300000 1.100000 0.200000
3.400000 1.100000 0.200000
3.500000 1.100000 0.200000
3.600000 1.100000 0.200000
3.700000 1.100000 0.200000
3.800000 1.100000 0.200000
3.900000 1.100000 0.200000
4.000000 1.100000 0.200000
2.700000 1.200000 0.200000
2.800000 1.200000 0.200000
2.900000 1.200000 0.200000
3.000000 1.200000 0.200000
3.100000 1.200000 0.200000
3.200000 1.200000 0.200000
3.300000 1.200000 0.200000
3.400000 1.200000 0.200000
3.500000 1.200000 0.200000
3.600000 1.200000 0.200000
3.700000 1.200000 0.200000
3.800000 1.200000 0.200000
3.900000 1.200000 0.200000
4.000000 1.200000 0.200000
2.700000 1.300000 0.200000
2.800000 1.300000 0.200000
2.900000 1.300000 0.200000
3.000000 1.300000 0.200000
3.100000 1.300000 0.200000
3.200000 1.300000 0.200000
3.300000 1.300000 0.200000
3.400000 1.300000 0.200000
3.500000 1.300000 0.200000
3.600000 1.300000 0.200000
3.700000 1.300000 0.200000
3.800000 1.300000 0.200000
3.900000 1.300000 0.200000
4.000000 1.300000 0.200000
2.700000 1.400000 0.200000
[...]
CELL_DATA 2600
SCALARS pressure float 1
LOOKUP_TABLE default
8.62702
7.93288
7.24175
6.55208
5.86296
5.17389
4.48465
3.79514
3.10534
2.41527
1.72501
1.03469
0.344548
8.63352
7.93744
7.24489
6.55419
5.86434
5.17478
4.48521
3.79548
3.10553
2.41537
1.72506
1.0347
0.344538
8.64558
7.94593
7.25074
6.55813
5.86695
5.17646
4.48626
3.79611
3.1059
2.41557
1.72516
1.03473
0.344523
8.66146
7.95713
7.25847
6.56335
5.87039
5.17868
4.48765
3.79696
3.10639
2.41584
1.72529
1.03478
0.344511
8.67895
7.9695
7.26701
6.56913
5.87421
5.18114
4.4892
3.79789
3.10694
2.41615
1.72544
1.03484
0.344514
8.69577
7.9814
7.27526
6.57471
5.8779
5.18352
4.49068
3.7988
3.10746
2.41644
1.7256
1.03492
0.344539
8.70993
7.99144
7.2822
6.5794
5.88099
5.18551
4.49192
3.79954
3.1079
2.41669
1.72575
1.03502
0.344594
8.72
7.99857
7.28712
6.58271
5.88316
5.18688
4.49277
3.80004
3.10818
2.41685
1.72585
1.03511
0.344675
8.72515
8.00216
7.28954
6.5843
5.88416
5.18749
4.49312
3.80023
3.10827
2.41689
1.72589
1.03517
0.344765
8.72474
8.00172
7.28913
6.58392
5.88384
5.18722
4.4929
3.80005
3.10814
2.41679
1.72582
1.03514
0.344809
8.66252
7.95913
7.26088
6.56582
5.8727
5.18073
4.4894
3.79842
3.10759
2.41684
1.72613
1.03549
0.344977
8.66795
7.96297
7.26352
6.5676
5.87387
5.18148
4.48987
3.79869
3.10775
2.41692
1.72616
1.03549
0.344953
8.67801
7.97007
7.26842
6.5709
5.87605
5.18288
4.49074
3.79921
3.10804
2.41707
1.72623
1.0355
0.344911
8.69113
7.97934
7.27482
6.57522
5.87889
5.18469
4.49186
3.79988
3.10842
2.41726
1.7263
1.0355
0.344862
8.70531
7.98935
7.28172
6.57986
5.88193
5.18663
4.49305
3.80058
3.1088
2.41746
1.72639
1.03551
0.344819
8.71841
7.99858
7.28805
6.5841
5.88468
5.18836
4.4941
3.80118
3.10913
2.41761
1.72645
1.03552
0.344793
8.72844
8.00557
7.29279
6.5872
5.88665
5.18956
4.49479
3.80155
3.1093
2.41768
1.72646
1.03552
0.344792
8.73375
8.00912
7.29506
6.58858
5.88743
5.18995
4.49494
3.80157
3.10925
2.4176
1.72639
1.03549
0.344811
8.73302
8.00825
7.29417
6.58775
5.88669
5.18932
4.49442
3.80115
3.10892
2.41735
1.72622
1.03539
0.34483
8.7251
8.00212
7.28952
6.58428
5.88415
5.18749
4.49311
3.80022
3.10827
2.41689
1.72589
1.03517
0.344765
8.68559
7.9772
7.27473
6.57625
5.88043
5.18638
4.49349
3.80135
3.10968
2.41832
1.72718
1.03618
0.345284
8.6903
7.98048
7.27695
6.57772
5.88138
5.18697
4.49384
3.80154
3.10978
2.41837
1.72718
1.03616
0.345242
8.69895
7.9865
7.28104
6.58043
5.88313
5.18806
4.49449
3.80191
3.10997
2.41844
1.72719
1.03612
0.345167
8.71007
7.99423
7.28629
6.58389
5.88535
5.18944
4.49531
3.80236
3.11019
2.41853
1.72719
1.03607
0.345074
8.72174
8.00231
7.29173
6.58745
5.8876
5.19081
4.4961
3.80278
3.11038
2.41858
1.72718
1.03601
0.344981
8.73185
8.00922
7.29631
6.59039
5.8894
5.19185
4.49665
3.80303
3.11046
2.41857
1.72712
1.03594
0.344905
8.73836
8.01349
7.29898
6.59196
5.89025
5.19224
4.49677
3.80299
3.11034
2.41843
1.72699
1.03584
0.344857
8.73947
8.0138
7.29881
6.59153
5.88971
5.19168
4.49624
3.80253
3.10996
2.41812
1.72676
1.03571
0.344835
8.7337
8.00908
7.29503
6.58856
5.88741
5.18994
4.49493
3.80156
3.10924
2.4176
1.72639
1.03549
0.344811
8.71989
7.99849
7.28706
6.58266
5.88312
5.18686
4.49275
3.80003
3.10817
2.41684
1.72585
1.03511
0.344674
8.69743
7.98771
7.28357
6.58342
5.88608
5.19074
4.49679
3.80381
3.1115
2.41965
1.72812
1.0368
0.345603
8.70168
7.99058
7.28545
6.58461
5.88682
5.19117
4.49703
3.80392
3.11154
2.41965
1.72809
1.03675
0.345542
8.70944
7.99579
7.28887
6.58678
5.88814
5.19194
4.49744
3.80412
3.1116
2.41964
1.72804
1.03667
0.345431
8.71923
8.00235
7.29313
6.58947
5.88977
5.19286
4.49792
3.80432
3.11165
2.4196
1.72795
1.03656
0.34529
8.72914
8.0089
7.29732
6.59204
5.89126
5.19367
4.49829
3.80444
3.11162
2.4195
1.72782
1.03642
0.345145
8.737
8.01392
7.30038
6.59379
5.89216
5.19404
4.49835
3.80433
3.11144
2.4193
1.72764
1.03626
0.345016
8.7407
8.0159
7.30125
6.59397
5.89196
5.19365
4.4979
3.80389
3.11104
2.41896
1.72737
1.03608
0.34492
8.73833
8.01346
7.29895
6.59194
5.89023
5.19222
4.49675
3.80298
3.11033
2.41842
1.72698
1.03584
0.344856
8.72836
8.0055
7.29272
6.58715
5.88661
5.18952
4.49476
3.80153
3.10928
2.41766
1.72645
1.03551
0.34479
8.70976
7.99131
7.28209
6.57932
5.88093
5.18546
4.49189
3.79952
3.10788
2.41668
1.72574
1.03501
0.344591
8.70016
7.99203
7.28825
6.58782
5.88992
5.19393
4.49936
3.80582
3.11304
2.42081
1.72897
1.03738
0.345965
8.70417
7.99459
7.28984
6.58876
5.89045
5.1942
4.49946
3.80584
3.11301
2.42076
1.7289
1.03731
0.345884
8.71143
7.99921
7.29269
6.59044
5.89137
5.19465
4.49964
3.80585
3.11294
2.42065
1.72878
1.03718
0.345737
8.72042
8.00489
7.29613
6.59242
5.89243
5.19513
4.49978
3.80581
3.11281
2.42048
1.7286
1.037
0.345548
8.72918
8.01027
7.29927
6.59411
5.89322
5.19538
4.49973
3.80561
3.11255
2.42021
1.72835
1.03678
0.345347
8.73545
8.01379
7.30104
6.5948
5.89328
5.19512
4.49931
3.80515
3.11212
2.41983
1.72804
1.03654
0.345163
8.737
8.01391
7.30036
6.59377
5.89214
5.19402
4.49834
3.80432
3.11143
2.41929
1.72763
1.03626
0.345015
8.73182
8.00918
7.29626
6.59034
5.88936
5.19182
4.49662
3.80301
3.11044
2.41855
1.72711
1.03593
0.344902
8.71831
7.99848
7.28796
6.58401
5.88461
5.1883
4.49405
3.80115
3.1091
2.41759
1.72643
1.03551
0.34479
8.69557
7.98123
7.27511
6.57459
5.8778
5.18344
4.49063
3.79875
3.10743
2.41642
1.72559
1.03491
0.344535
8.69641
7.99187
7.28986
6.59013
5.89234
5.19617
4.50129
3.80742
3.11432
2.4218
1.72971
1.03794
0.346362
8.70031
7.99422
7.2912
6.59083
5.89267
5.19628
4.50127
3.80734
3.11422
2.4217
1.72961
1.03784
0.346262
8.70734
7.9984
7.29357
6.59207
5.89322
5.19643
4.50121
3.80718
3.11401
2.42149
1.72942
1.03766
0.346079
8.71593
8.00342
7.29632
6.59343
5.89375
5.19649
4.50102
3.80688
3.11369
2.42119
1.72915
1.03741
0.345842
8.724
8.0079
7.29857
6.59433
5.89388
5.19622
4.50058
3.80639
3.11322
2.42076
1.72879
1.03711
0.345586
8.7292
8.01027
7.29926
6.5941
5.8932
5.19537
4.49972
3.8056
3.11254
2.4202
1.72835
1.03678
0.345345
8.72915
8.00888
7.29729
6.592
5.89123
5.19363
4.49826
3.80441
3.1116
2.41948
1.72781
1.03641
0.345141
8.72172
8.00226
7.29166
6.58739
5.88754
5.19075
4.49605
3.80274
3.11035
2.41856
1.72716
1.036
0.344976
8.70521
7.98924
7.28161
6.57976
5.88184
5.18655
4.49299
3.80053
3.10876
2.41743
1.72636
1.0355
0.344813
8.67874
7.9693
7.26683
6.56898
5.87408
5.18104
4.48912
3.79783
3.10689
2.41611
1.72542
1.03482
0.344506
8.68897
7.98906
7.28954
6.59103
5.89375
5.19769
4.50271
3.80865
3.11534
2.42262
1.73036
1.03844
0.346762
8.69285
7.99123
7.29066
6.59154
5.8939
5.19765
4.50258
3.80849
3.11518
2.42247
1.73022
1.03832
0.346645
8.69981
7.99508
7.29262
6.59238
5.89412
5.19753
4.5023
3.80816
3.11485
2.42218
1.72997
1.03809
0.346429
8.70824
7.99961
7.2948
6.59319
5.89417
5.1972
4.50182
3.80764
3.11436
2.42175
1.7296
1.03778
0.346148
8.71596
8.00342
7.29632
6.59342
5.89373
5.19647
4.50101
3.80687
3.11368
2.42118
1.72914
1.03741
0.34584
8.72047
8.0049
7.29612
6.5924
5.8924
5.1951
4.49975
3.80578
3.11278
2.42046
1.72858
1.03699
0.345544
8.71928
8.00234
7.29309
6.58942
5.88971
5.19281
4.49787
3.80429
3.11162
2.41957
1.72793
1.03655
0.345285
8.71007
7.99418
7.28621
6.58381
5.88527
5.18936
4.49524
3.80231
3.11015
2.41849
1.72717
1.03606
0.345067
8.69105
7.97922
7.27469
6.57509
5.87878
5.18459
4.49178
3.79981
3.10836
2.41722
1.72628
1.03548
0.344854
8.66126
7.95692
7.25827
6.56317
5.87024
5.17856
4.48755
3.79688
3.10633
2.4158
1.72525
1.03475
0.344501
8.68056
7.98528
7.28832
6.59116
5.89452
5.19868
4.50372
3.80957
3.11613
2.42327
1.73088
1.03886
0.347122
8.68446
7.98732
7.28927
6.59149
5.89451
5.19852
4.50349
3.80933
3.1159
2.42307
1.73071
1.03872
0.34699
8.69144
7.99092
7.2909
6.59201
5.89444
5.19816
4.50303
3.80886
3.11548
2.4227
1.7304
1.03845
0.346747
8.69985
7.99509
7.29262
6.59237
5.8941
5.19751
4.50229
3.80815
3.11484
2.42217
1.72996
1.03808
0.346427
8.7074
7.99841
7.29356
6.59205
5.89319
5.1964
4.50119
3.80715
3.11399
2.42148
1.72941
1.03765
0.346075
8.71151
7.99923
7.29267
6.5904
5.89133
5.19461
4.4996
3.80581
3.11291
2.42062
1.72876
1.03717
0.345731
8.70951
7.99579
7.28882
6.58672
5.88808
5.19188
4.49738
3.80407
3.11156
2.4196
1.72801
1.03666
0.345423
8.69898
7.98646
7.28096
6.58033
5.88303
5.18797
4.49442
3.80184
3.10991
2.4184
1.72716
1.0361
0.345158
8.67795
7.96995
7.26828
6.57076
5.87592
5.18276
4.49064
3.79913
3.10797
2.41702
1.72619
1.03547
0.344901
8.64538
7.94571
7.25052
6.55793
5.86677
5.17631
4.48614
3.79601
3.10582
2.41552
1.72511
1.0347
0.34451
8.67355
7.98194
7.28705
6.59099
5.89489
5.19929
4.50437
3.81018
3.11666
2.42372
1.73125
1.03916
0.347394
8.67747
7.98389
7.28787
6.5912
5.89478
5.19903
4.50407
3.80989
3.1164
2.42349
1.73106
1.03901
0.347252
8.68449
7.98733
7.28927
6.59148
5.8945
5.1985
4.50348
3.80932
3.11589
2.42307
1.73071
1.03871
0.346988
8.69292
7.99125
7.29066
6.59152
5.89388
5.19762
4.50255
3.80846
3.11516
2.42245
1.73021
1.03831
0.346641
8.70041
7.99424
7.29119
6.5908
5.89263
5.19623
4.50123
3.8073
3.11419
2.42167
1.7296
1.03783
0.346255
8.70429
7.99462
7.28982
6.58871
5.89039
5.19414
4.49941
3.80579
3.11297
2.42072
1.72888
1.0373
0.345876
8.70179
7.99059
7.28541
6.58454
5.88674
5.19109
4.49695
3.80386
3.11149
2.41961
1.72806
1.03673
0.345532
8.69036
7.98044
7.27687
6.57761
5.88127
5.18687
4.49375
3.80147
3.10972
2.41831
1.72714
1.03613
0.345232
8.66792
7.96285
7.26337
6.56744
5.87373
5.18135
4.48975
3.7986
3.10767
2.41686
1.72612
1.03546
0.344941
8.63333
7.93721
7.24465
6.55397
5.86415
5.17462
4.48507
3.79536
3.10544
2.41531
1.72501
1.03467
0.344523
8.66965
7.98006
7.2863
6.59085
5.89506
5.19958
4.5047
3.81049
3.11694
2.42395
1.73144
1.03932
0.34754
8.67358
7.98196
7.28705
6.59099
5.89488
5.19927
4.50436
3.81017
3.11665
2.42371
1.73124
1.03916
0.347392
8.68063
7.9853
7.28832
6.59114
5.89449
5.19866
4.50369
3.80955
3.11611
2.42325
1.73087
1.03885
0.347117
8.68907
7.9891
7.28953
6.59101
5.89372
5.19765
4.50267
3.80862
3.11531
2.4226
1.73034
1.03842
0.346755
8.69654
7.99192
7.28985
6.59009
5.89229
5.19612
4.50124
3.80737
3.11428
2.42177
1.72969
1.03792
0.346353
8.70031
7.99207
7.28823
6.58777
5.88986
5.19386
4.49929
3.80576
3.11299
2.42077
1.72894
1.03736
0.345955
8.69757
7.98774
7.28353
6.58334
5.886
5.19065
4.49671
3.80374
3.11144
2.4196
1.72808
1.03677
0.345592
8.68568
7.97718
7.27464
6.57613
5.88031
5.18627
4.49339
3.80126
3.10961
2.41827
1.72713
1.03615
0.345272
8.6625
7.95902
7.26072
6.56565
5.87254
5.18059
4.48928
3.79831
3.1075
2.41677
1.72608
1.03546
0.344963
8.62685
7.93265
7.24151
6.55185
5.86275
5.17371
4.4845
3.79501
3.10524
2.41519
1.72496
1.03465
0.344532
8.66971
7.9801
7.28632
6.59087
5.89507
5.19958
4.5047
3.8105
3.11694
2.42395
1.73144
1.03932
0.347537
8.67363
7.982
7.28708
6.59101
5.8949
5.19928
4.50436
3.81017
3.11665
2.42371
1.73124
1.03916
0.347389
8.68068
7.98534
7.28835
6.59116
5.89451
5.19867
4.5037
3.80955
3.11611
2.42325
1.73087
1.03885
0.347115
8.68912
7.98913
7.28956
6.59103
5.89373
5.19766
4.50268
3.80862
3.11531
2.4226
1.73034
1.03842
0.346753
8.69659
7.99196
7.28988
6.59011
5.89231
5.19613
4.50124
3.80737
3.11428
2.42177
1.72969
1.03792
0.346351
8.70036
7.99211
7.28826
6.58779
5.88987
5.19387
4.4993
3.80576
3.11299
2.42077
1.72893
1.03736
0.345953
8.69761
7.98777
7.28356
6.58336
5.88601
5.19066
4.49672
3.80374
3.11144
2.4196
1.72808
1.03677
0.34559
8.68572
7.97722
7.27467
6.57615
5.88033
5.18628
4.49339
3.80126
3.10961
2.41827
1.72713
1.03615
0.34527
8.66255
7.95906
7.26075
6.56567
5.87256
5.1806
4.48928
3.79831
3.10751
2.41677
1.72608
1.03546
0.344962
8.6269
7.93268
7.24154
6.55187
5.86276
5.17372
4.48451
3.79502
3.10524
2.41519
1.72496
1.03465
0.344531
8.67372
7.98206
7.28713
6.59105
5.89493
5.19931
4.50438
3.81019
3.11666
2.42371
1.73124
1.03916
0.347386
8.67762
7.98401
7.28795
6.59125
5.89482
5.19905
4.50408
3.8099
3.1164
2.42349
1.73106
1.039
0.347244
8.68464
7.98744
7.28935
6.59154
5.89454
5.19853
4.50349
3.80932
3.1159
2.42306
1.7307
1.03871
0.34698
8.69306
7.99135
7.29073
6.59157
5.89392
5.19765
4.50257
3.80847
3.11516
2.42245
1.73021
1.0383
0.346634
8.70055
7.99435
7.29126
6.59086
5.89267
5.19626
4.50125
3.80731
3.11419
2.42167
1.72959
1.03782
0.346249
8.70442
7.99472
7.28989
6.58877
5.89043
5.19416
4.49942
3.8058
3.11297
2.42072
1.72887
1.03729
0.34587
8.70192
7.99069
7.28548
6.5846
5.88678
5.19112
4.49697
3.80387
3.11149
2.41961
1.72806
1.03673
0.345528
8.69049
7.98055
7.27695
6.57767
5.88131
5.1869
4.49377
3.80148
3.10972
2.41832
1.72714
1.03613
0.345228
8.66806
7.96296
7.26345
6.5675
5.87377
5.18138
4.48977
3.79861
3.10767
2.41686
1.72612
1.03546
0.344937
8.63348
7.93732
7.24474
6.55403
5.86419
5.17465
4.48509
3.79537
3.10544
2.41531
1.72501
1.03466
0.34452
8.68083
7.98546
7.28845
6.59125
5.89457
5.19872
4.50374
3.80958
3.11613
2.42326
1.73087
1.03885
0.347109
8.68471
7.9875
7.2894
6.59158
5.89457
5.19855
4.50351
3.80934
3.1159
2.42307
1.73071
1.0387
0.346977
8.69168
7.99109
7.29103
6.5921
5.8945
5.1982
4.50305
3.80887
3.11548
2.4227
1.73039
1.03844
0.346735
8.70007
7.99526
7.29274
6.59246
5.89416
5.19755
4.50231
3.80816
3.11484
2.42217
1.72995
1.03808
0.346416
8.70762
7.99858
7.29368
6.59214
5.89325
5.19644
4.50121
3.80716
3.114
2.42147
1.7294
1.03764
0.346064
8.71172
7.99939
7.29279
6.59049
5.89139
5.19465
4.49962
3.80583
3.11292
2.42062
1.72876
1.03716
0.345722
8.70973
7.99595
7.28895
6.58681
5.88814
5.19192
4.49741
3.80408
3.11157
2.4196
1.72801
1.03665
0.345416
8.6992
7.98662
7.28109
6.58043
5.8831
5.18802
4.49444
3.80186
3.10992
2.4184
1.72716
1.0361
0.345152
8.67818
7.97012
7.26841
6.57086
5.87599
5.18281
4.49067
3.79914
3.10798
2.41702
1.72619
1.03547
0.344896
8.64562
7.94588
7.25065
6.55803
5.86684
5.17636
4.48617
3.79603
3.10583
2.41552
1.72511
1.0347
0.344506
8.68931
7.9893
7.28971
6.59115
5.89383
5.19773
4.50273
3.80866
3.11534
2.42261
1.73035
1.03842
0.346745
8.69317
7.99146
7.29083
6.59165
5.89398
5.19769
4.5026
3.8085
3.11517
2.42246
1.73021
1.0383
0.346628
8.70012
7.9953
7.29278
6.59249
5.89419
5.19757
4.50233
3.80817
3.11485
2.42217
1.72996
1.03807
0.346413
8.70853
7.99983
7.29496
6.5933
5.89424
5.19725
4.50184
3.80765
3.11436
2.42174
1.72959
1.03777
0.346133
8.71624
8.00364
7.29647
6.59353
5.89381
5.19652
4.50104
3.80688
3.11369
2.42117
1.72913
1.0374
0.345826
8.72075
8.00511
7.29627
6.59251
5.89247
5.19515
4.49978
3.8058
3.11279
2.42046
1.72858
1.03698
0.345532
8.71956
8.00255
7.29325
6.58953
5.88979
5.19287
4.49791
3.8043
3.11163
2.41957
1.72793
1.03654
0.345275
8.71036
7.9944
7.28638
6.58393
5.88535
5.18942
4.49528
3.80233
3.11016
2.41849
1.72716
1.03605
0.345059
8.69134
7.97944
7.27486
6.57522
5.87886
5.18465
4.49181
3.79983
3.10837
2.41722
1.72627
1.03548
0.344847
8.66156
7.95715
7.25844
6.5633
5.87033
5.17861
4.48759
3.7969
3.10633
2.4158
1.72525
1.03475
0.344495
8.69681
7.99215
7.29005
6.59025
5.89242
5.19622
4.50131
3.80742
3.11431
2.42179
1.7297
1.03792
0.346341
8.70069
7.99448
7.29139
6.59096
5.89275
5.19632
4.50129
3.80734
3.11421
2.42168
1.7296
1.03782
0.346241
8.70769
7.99865
7.29375
6.5922
5.8933
5.19648
4.50124
3.80718
3.11401
2.42148
1.72941
1.03764
0.34606
8.71627
8.00367
7.2965
6.59355
5.89383
5.19654
4.50105
3.80689
3.11369
2.42117
1.72913
1.03739
0.345824
8.72433
8.00815
7.29875
6.59446
5.89397
5.19627
4.50061
3.8064
3.11322
2.42076
1.72878
1.0371
0.34557
8.72952
8.01051
7.29944
6.59423
5.89329
5.19542
4.49975
3.80561
3.11254
2.4202
1.72834
1.03677
0.345331
8.72948
8.00913
7.29748
6.59214
5.89132
5.19369
4.49829
3.80443
3.11161
2.41948
1.7278
1.0364
0.345129
8.72205
8.00251
7.29185
6.58752
5.88764
5.19082
4.49609
3.80276
3.11036
2.41856
1.72715
1.03599
0.344966
8.70556
7.9895
7.2818
6.5799
5.88194
5.18662
4.49303
3.80055
3.10877
2.41743
1.72636
1.03549
0.344805
8.6791
7.96957
7.26703
6.56912
5.87418
5.18111
4.48916
3.79785
3.10689
2.41611
1.72541
1.03481
0.344498
8.70058
7.99232
7.28845
6.58795
5.89
5.19397
4.49937
3.80582
3.11303
2.42079
1.72894
1.03736
0.345941
8.70457
7.99488
7.29003
6.58889
5.89052
5.19424
4.49948
3.80583
3.113
2.42073
1.72888
1.03729
0.345861
8.7118
7.99949
7.29288
6.59057
5.89145
5.1947
4.49965
3.80585
3.11293
2.42063
1.72875
1.03716
0.345715
8.72079
8.00516
7.29632
6.59255
5.89251
5.19518
4.4998
3.80581
3.11279
2.42046
1.72858
1.03698
0.345527
8.72953
8.01053
7.29946
6.59424
5.8933
5.19543
4.49976
3.80562
3.11254
2.4202
1.72834
1.03677
0.345328
8.7358
8.01406
7.30123
6.59494
5.89337
5.19517
4.49934
3.80516
3.11211
2.41982
1.72802
1.03652
0.345147
8.73736
8.01418
7.30056
6.59391
5.89224
5.19408
4.49837
3.80434
3.11143
2.41928
1.72762
1.03625
0.345001
8.73218
8.00945
7.29647
6.59048
5.88946
5.19188
4.49666
3.80303
3.11044
2.41855
1.7271
1.03592
0.34489
8.71869
7.99876
7.28817
6.58416
5.88472
5.18837
4.49409
3.80116
3.1091
2.41759
1.72642
1.0355
0.34478
8.69596
7.98152
7.27532
6.57474
5.8779
5.18351
4.49066
3.79877
3.10743
2.41641
1.72557
1.0349
0.344525
8.69784
7.988
7.28377
6.58354
5.88615
5.19077
4.49679
3.80379
3.11147
2.41962
1.72808
1.03677
0.345577
8.70208
7.99085
7.28564
6.58473
5.88688
5.1912
4.49703
3.80391
3.11151
2.41961
1.72806
1.03672
0.345516
8.70982
7.99606
7.28905
6.5869
5.88821
5.19197
4.49744
3.8041
3.11158
2.4196
1.728
1.03664
0.345407
8.7196
8.00261
7.29332
6.58959
5.88984
5.1929
4.49793
3.80431
3.11163
2.41957
1.72792
1.03653
0.345268
8.7295
8.00916
7.29751
6.59217
5.89134
5.19371
4.4983
3.80443
3.1116
2.41947
1.7278
1.0364
0.345124
8.73736
8.01419
7.30058
6.59392
5.89224
5.19408
4.49837
3.80434
3.11143
2.41928
1.72762
1.03624
0.344998
8.74107
8.01618
7.30145
6.59411
5.89205
5.19371
4.49793
3.80389
3.11103
2.41894
1.72735
1.03606
0.344905
8.73871
8.01374
7.29916
6.59208
5.89033
5.19228
4.49678
3.80299
3.11033
2.41841
1.72697
1.03583
0.344843
8.72875
8.00579
7.29294
6.5873
5.88671
5.18959
4.49479
3.80154
3.10928
2.41765
1.72644
1.0355
0.344779
8.71016
7.9916
7.28231
6.57947
5.88103
5.18552
4.49192
3.79953
3.10787
2.41666
1.72572
1.035
0.344581
8.68597
7.97746
7.27489
6.57633
5.88047
5.18638
4.49347
3.8013
3.10963
2.41827
1.72713
1.03614
0.345256
8.69066
7.98073
7.27711
6.57781
5.88142
5.18698
4.49382
3.8015
3.10973
2.41832
1.72713
1.03612
0.345214
8.6993
7.98674
7.2812
6.58052
5.88317
5.18807
4.49447
3.80187
3.10992
2.41839
1.72714
1.03608
0.34514
8.71041
7.99447
7.28644
6.58399
5.88539
5.18945
4.49529
3.80233
3.11015
2.41848
1.72715
1.03604
0.345049
8.72208
8.00255
7.29189
6.58756
5.88766
5.19083
4.49609
3.80276
3.11035
2.41855
1.72714
1.03598
0.344958
8.73219
8.00947
7.29648
6.5905
5.88947
5.19188
4.49666
3.80302
3.11043
2.41854
1.72709
1.03591
0.344885
8.73872
8.01375
7.29917
6.59208
5.89033
5.19228
4.49678
3.80299
3.11033
2.41841
1.72696
1.03582
0.34484
8.73984
8.01408
7.29901
6.59166
5.88979
5.19173
4.49626
3.80253
3.10994
2.4181
1.72674
1.03569
0.344821
8.73408
8.00936
7.29523
6.5887
5.88751
5.18999
4.49496
3.80156
3.10923
2.41758
1.72637
1.03547
0.344799
8.72028
7.99877
7.28726
6.5828
5.88321
5.18691
4.49277
3.80003
3.10816
2.41682
1.72583
1.03509
0.344662
8.66285
7.95934
7.26098
6.56586
5.8727
5.18069
4.48934
3.79834
3.10751
2.41677
1.72607
1.03544
0.344944
8.66826
7.96316
7.26362
6.56764
5.87387
5.18144
4.48981
3.79862
3.10767
2.41685
1.7261
1.03544
0.34492
8.6783
7.97026
7.26853
6.57095
5.87605
5.18284
4.49068
3.79915
3.10797
2.417
1.72616
1.03544
0.34488
8.69142
7.97953
7.27493
6.57527
5.8789
5.18467
4.49182
3.79982
3.10835
2.4172
1.72625
1.03546
0.344834
8.7056
7.98955
7.28184
6.57993
5.88195
5.18662
4.49302
3.80054
3.10875
2.4174
1.72634
1.03547
0.344794
8.71871
7.99879
7.28819
6.58417
5.88472
5.18836
4.49408
3.80115
3.10908
2.41757
1.7264
1.03548
0.344771
8.72876
8.0058
7.29294
6.5873
5.8867
5.18958
4.49478
3.80153
3.10927
2.41764
1.72642
1.03549
0.344773
8.73409
8.00937
7.29523
6.58869
5.8875
5.18998
4.49495
3.80156
3.10922
2.41757
1.72636
1.03546
0.344796
8.73338
8.00852
7.29436
6.58787
5.88677
5.18936
4.49444
3.80114
3.1089
2.41733
1.72619
1.03537
0.344817
8.72547
8.00239
7.28971
6.58441
5.88423
5.18753
4.49313
3.80022
3.10825
2.41687
1.72586
1.03514
0.344753
8.62727
7.933
7.24179
6.55205
5.86289
5.1738
4.48455
3.79503
3.10522
2.41517
1.72492
1.03461
0.344503
8.63374
7.93755
7.24492
6.55416
5.86428
5.1747
4.48511
3.79537
3.10542
2.41527
1.72497
1.03462
0.344493
8.64579
7.94604
7.25077
6.55811
5.86689
5.17638
4.48616