# vtk DataFile Version 2.0
I need something to put here
ASCII

DATASET STRUCTURED_GRID
DIMENSIONS 14 11 21
POINTS 3234 float
2.700000 0.000000 0.000000
2.800000 0.000000 0.000000
2.900000 0.000000 0.000000
3.000000 0.000000 0.000000
3.100000 0.000000 0.000000
3.200000 0.000000 0.000000
3.300000 0.000000 0.000000
3.400000 0.000000 0.000000
3.500000 0.000000 0.000000
3.600000 0.000000 0.000000
3.700000 0.000000 0.000000
3.800000 0.000000 0.000000
3.900000 0.000000 0.000000
4.000000 0.000000 0.000000
2.700000 0.100000 0.000000
2.800000 0.100000 0.000000
2.900000 0.100000 0.000000
3.000000 0.100000 0.000000
3.100000 0.100000 0.000000
3.200000 0.100000 0.000000
3.300000 0.100000 0.000000
3.400000 0.100000 0.000000
3.500000 0.100000 0.000000
3.600000 0.100000 0.000000
3.700000 0.100000 0.000000
3.800000 0.100000 0.000000
3.900000 0.100000 0.000000
4.000000 0.100000 0.000000
2.700000 0.200000 0.000000
2.800000 0.200000 0.000000
2.900000 0.200000 0.000000
3.000000 0.200000 0.000000
3.100000 0.200000 0.000000
3.200000 0.200000 0.000000
3.300000 0.200000 0.000000
3.400000 0.200000 0.000000
3.500000 0.200000 0.000000
3.600000 0.200000 0.000000
3.700000 0.200000 0.000000
3.800000 0.200000 0.000000
3.900000 0.200000 0.000000
4.000000 0.200000 0.000000
2.700000 0.300000 0.000000
2.800000 0.300000 0.000000
2.900000 0.300000 0.000000
3.000000 0.300000 0.000000
3.100000 0.300000 0.000000
3.200000 0.300000 0.000000
3.300000 0.300000 0.000000
3.400000 0.300000 0.000000
3.500000 0.300000 0.000000
3.600000 0.300000 0.000000
3.700000 0.300000 0.000000
3.800000 0.300000 0.000000
3.900000 0.300000 0.000000
4.000000 0.300000 0.000000
2.700000 0.400000 0.000000
2.800000 0.400000 0.000000
2.900000 0.400000 0.000000
3.000000 0.400000 0.000000
3.100000 0.400000 0.000000
3.200000 0.400000 0.000000
3.300000 0.400000 0.000000
3.400000 0.400000 0.000000
3.500000 0.400000 0.000000
3.600000 0.400000 0.000000
3.700000 0.400000 0.000000
3.800000 0.400000 0.000000
3.900000 0.400000 0.000000
4.000000 0.400000 0.000000
2.700000 0.500000 0.000000
2.800000 0.500000 0.000000
2.900000 0.500000 0.000000
3.000000 0.500000 0.000000
3.100000 0.500000 0.000000
3.200000 0.500000 0.000000
3.300000 0.500000 0.000000
3.400000 0.500000 0.000000
3.500000 0.500000 0.000000
3.600000 0.500000 0.000000
3.700000 0.500000 0.000000
3.800000 0.500000 0.000000
3.900000 0.500000 0.000000
4.000000 0.500000 0.000000
2.700000 0.600000 0.000000
2.800000 0.600000 0.000000
2.900000 0.600000 0.000000
3.000000 0.600000 0.000000
3.100000 0.600000 0.000000
3.200000 0.600000 0.000000
3.300000 0.600000 0.000000
3.400000 0.600000 0.000000
3.500000 0.600000 0.000000
3.600000 0.600000 0.000000
3.700000 0.600000 0.000000
3.800000 0.600000 0.000000
3.900000 0.600000 0.000000
4.000000 0.600000 0.000000
2.700000 0.700000 0.000000
2.800000 0.700000 0.000000
2.900000 0.700000 0.000000
3.000000 0.700000 0.000000
3.100000 0.700000 0.000000
3.200000 0.700000 0.000000
3.300000 0.700000 0.000000
3.400000 0.700000 0.000000
3.500000 0.700000 0.000000
3.600000 0.700000 0.000000
3.700000 0.700000 0.000000
3.800000 0.700000 0.000000
3.900000 0.700000 0.000000
4.000000 0.700000 0.000000
2.700000 0.800000 0.000000
2.800000 0.800000 0.000000
2.900000 0.800000 0.000000
3.000000 0.800000 0.000000
3.100000 0.800000 0.000000
3.200000 0.800000 0.000000
3.300000 0.800000 0.000000
3.400000 0.800000 0.000000
3.500000 0.800000 0.000000
3.600000 0.800000 0.000000
3.700000 0.800000 0.000000
3.800000 0.800000 0.000000
3.900000 0.800000 0.000000
4.000000 0.800000 0.000000
2.700000 0.900000 0.000000
2.800000 0.900000 0.000000
2.900000 0.900000 0.000000
3.000000 0.900000 0.000000
3.100000 0.900000 0.000000
3.200000 0.900000 0.000000
3.300000 0.900000 0.000000
3.400000 0.900000 0.000000
3.500000 0.900000 0.000000
3.600000 0.900000 0.000000
3.700000 0.900000 0.000000
3.800000 0.900000 0.000000
3.900000 0.900000 0.000000
4.000000 0.900000 0.000000
2.700000 1.000000 0.000000
2.800000 1.000000 0.000000
2.900000 1.000000 0.000000
3.000000 1.000000 0.000000
3.100000 1.000000 0.000000
3.200000 1.000000 0.000000
3.300000 1.000000 0.000000
3.400000 1.000000 0.000000
3.500000 1.000000 0.000000
3.600000 1.000000 0.000000
3.700000 1.000000 0.000000
3.800000 1.000000 0.000000
3.900000 1.000000 0.000000
4.000000 1.000000 0.000000
2.700000 0.000000 0.100000
2.800000 0.000000 0.100000
2.900000 0.000000 0.100000
3.000000 0.000000 0.100000
3.100000 0.000000 0.100000
3.200000 0.000000 0.100000
3.300000 0.000000 0.100000
3.400000 0.000000 0.100000
3.500000 0.000000 0.100000
3.600000 0.000000 0.100000
3.700000 0.000000 0.100000
3.800000 0.000000 0.100000
3.900000 0.000000 0.100000
4.000000 0.000000 0.100000
2.700000 0.100000 0.100000
2.800000 0.100000 0.100000
2.900000 0.100000 0.100000
3.000000 0.100000 0.100000
3.100000 0.100000 0.100000
3.200000 0.100000 0.100000
3.300000 0.100000 0.100000
3.400000 0.100000 0.100000
3.500000 0.100000 0.100000
3.600000 0.100000 0.100000
3.700000 0.100000 0.100000
3.800000 0.100000 0.100000
3.900000 0.100000 0.100000
4.000000 0.100000 0.100000
2.700000 0.200000 0.100000
2.800000 0.200000 0.100000
2.900000 0.200000 0.100000
3.000000 0.200000 0.100000
3.100000 0.200000 0.100000
3.200000 0.200000 0.100000
3.300000 0.200000 0.100000
3.400000 0.200000 0.100000
3.500000 0.200000 0.100000
3.600000 0.200000 0.100000
3.700000 0.200000 0.100000
3.800000 0.200000 0.100000
3.900000 0.200000 0.100000
4.000000 0.200000 0.100000
2.700000 0.300000 0.100000
2.800000 0.300000 0.100000
2.900000 0.300000 0.100000
3.000000 0.300000 0.100000
3.100000 0.300000 0.100000
3.200000 0.300000 0.100000
3.300000 0.300000 0.100000
3.400000 0.300000 0.100000
3.500000 0.300000 0.100000
3.600000 0.300000 0.100000
3.700000 0.300000 0.100000
3.800000 0.300000 0.100000
3.900000 0.300000 0.100000
4.000000 0.300000 0.100000
2.700000 0.400000 0.100000
2.800000 0.400000 0.100000
2.900000 0.400000 0.100000
3.000000 0.400000 0.100000
3.100000 0.400000 0.100000
3.200000 0.400000 0.100000
3.300000 0.400000 0.100000
3.400000 0.400000 0.100000
3.500000 0.400000 0.100000
3.600000 0.400000 0.100000
3.700000 0.400000 0.100000
3.800000 0.400000 0.100000
3.900000 0.400000 0.100000
4.000000 0.400000 0.100000
2.700000 0.500000 0.100000
2.800000 0.500000 0.100000
2.900000 0.500000 0.100000
3.000000 0.500000 0.100000
3.100000 0.500000 0.100000
3.200000 0.500000 0.100000
3.300000 0.500000 0.100000
3.400000 0.500000 0.100000
3.500000 0.500000 0.100000
3.600000 0.500000 0.100000
3.700000 0.500000 0.100000
3.800000 0.500000 0.100000
3.900000 0.500000 0.100000
4.000000 0.500000 0.100000
2.700000 0.600000 0.100000
2.800000 0.600000 0.100000
2.900000 0.600000 0.100000
3.000000 0.600000 0.100000
3.100000 0.600000 0.100000
3.200000 0.600000 0.100000
3.300000 0.600000 0.100000
3.400000 0.600000 0.100000
3.500000 0.600000 0.100000
3.600000 0.600000 0.100000
3.700000 0.600000 0.100000
3.800000 0.600000 0.100000
3.900000 0.600000 0.100000
4.000000 0.600000 0.100000
2.700000 0.700000 0.100000
2.800000 0.700000 0.100000
2.900000 0.700000 0.100000
3.000000 0.700000 0.100000
3.100000 0.700000 0.100000
3.200000 0.700000 0.100000
3.300000 0.700000 0.100000
3.400000 0.700000 0.100000
3.500000 0.700000 0.100000
3.600000 0.700000 0.100000
3.700000 0.700000 0.100000
3.800000 0.700000 0.100000
3.900000 0.700000 0.100000
4.000000 0.700000 0.100000
2.700000 0.800000 0.100000
2.800000 0.800000 0.100000
2.900000 0.800000 0.100000
3.000000 0.800000 0.100000
3.100000 0.800000 0.100000
3.200000 0.800000 0.100000
3.300000 0.800000 0.100000
3.400000 0.800000 0.100000
3.500000 0.800000 0.100000
3.600000 0.800000 0.100000
3.700000 0.800000 0.100000
3.800000 0.800000 0.100000
3.900000 0.800000 0.100000
4.000000 0.800000 0.100000
2.700000 0.900000 0.100000
2.800000 0.900000 0.100000
2.900000 0.900000 0.100000
3.000000 0.900000 0.100000
3.100000 0.900000 0.100000
3.200000 0.900000 0.100000
3.300000 0.900000 0.100000
3.400000 0.900000 0.100000
3.500000 0.900000 0.100000
3.600000 0.900000 0.100000
3.700000 0.900000 0.100000
3.800000 0.900000 0.100000
3.900000 0.900000 0.100000
4.000000 0.900000 0.100000
2.700000 1.000000 0.100000
2.800000 1.000000 0.100000
2.900000 1.000000 0.100000
3.000000 1.000000 0.100000
3.100000 1.000000 0.100000
3.200000 1.000000 0.100000
3.300000 1.000000 0.100000
3.400000 1.000000 0.100000
3.500000 1.000000 0.100000
3.600000 1.000000 0.100000
3.700000 1.000000 0.100000
3.800000 1.000000 0.100000
3.900000 1.000000 0.100000
4.000000 1.000000 0.100000
2.700000 0.000000 0.200000
2.800000 0.000000 0.200000
2.900000 0.000000 0.200000
3.000000 0.000000 0.200000
3.100000 0.000000 0.200000
3.200000 0.000000 0.200000
3.300000 0.000000 0.200000
3.400000 0.000000 0.200000
3.500000 0.000000 0.200000
3.600000 0.000000 0.200000
3.700000 0.000000 0.200000
3.800000 0.000000 0.200000
3.900000 0.000000 0.200000
4.000000 0.000000 0.200000
2.700000 0.100000 0.200000
2.800000 0.100000 0.200000
2.900000 0.100000 0.200000
3.000000 0.100000 0.200000
3.100000 0.100000 0.200000
3.200000 0.100000 0.200000
3.300000 0.100000 0.200000
3.400000 0.100000 0.200000
3.500000 0.100000 0.200000
3.600000 0.100000 0.200000
3.700000 0.100000 0.200000
3.800000 0.100000 0.200000
3.900000 0.100000 0.200000
4.000000 0.100000 0.200000
2.700000 0.200000 0.200000
2.800000 0.200000 0.200000
2.900000 0.200000 0.200000
3.000000 0.200000 0.200000
3.100000 0.200000 0.200000
3.200000 0.200000 0.200000
3.300000 0.200000 0.200000
3.400000 0.200000 0.200000
3.500000 0.200000 0.200000
3.600000 0.200000 0.200000
3.700000 0.200000 0.200000
3.800000 0.200000 0.200000
3.900000 0.200000 0.200000
4.000000 0.200000 0.200000
2.700000 0.300000 0.200000
2.800000 0.300000 0.200000
2.900000 0.300000 0.200000
3.000000 0.300000 0.200000
3.100000 0.300000 0.200000
3.200000 0.300000 0.200000
3.300000 0.300000 0.200000
3.400000 0.300000 0.200000
3.500000 0.300000 0.200000
3.600000 0.300000 0.200000
3.700000 0.300000 0.200000
3.800000 0.300000 0.200000
3.900000 0.300000 0.200000
4.000000 0.300000 0.200000
2.700000 0.400000 0.200000
[...]
CELL_DATA 2600
SCALARS pressure float 1
LOOKUP_TABLE default
8.72523
8.00216
7.28951
6.58424
5.8841
5.18743
4.49306
3.80017
3.10822
2.41685
1.72585
1.03516
0.344808
8.72564
8.0026
7.28993
6.58462
5.88443
5.18771
4.49328
3.80035
3.10836
2.41695
1.72592
1.03518
0.344765
8.72049
7.99901
7.2875
6.58303
5.88342
5.18709
4.49293
3.80016
3.10827
2.41691
1.72589
1.03512
0.344675
8.71041
7.99187
7.28258
6.57972
5.88125
5.18571
4.49208
3.79966
3.10798
2.41675
1.72578
1.03503
0.344593
8.69623
7.98181
7.27561
6.575
5.87814
5.18371
4.49083
3.79891
3.10754
2.4165
1.72563
1.03494
0.344538
8.67938
7.96987
7.26733
6.5694
5.87443
5.18131
4.48933
3.79799
3.10701
2.41619
1.72547
1.03485
0.344511
8.66184
7.95746
7.25874
6.56358
5.87057
5.17882
4.48776
3.79704
3.10645
2.41588
1.72531
1.03478
0.344508
8.6459
7.94619
7.25096
6.55831
5.86709
5.17657
4.48634
3.79617
3.10594
2.4156
1.72517
1.03473
0.344518
8.63376
7.93763
7.24504
6.55431
5.86444
5.17486
4.48526
3.79551
3.10555
2.41539
1.72506
1.0347
0.344532
8.62719
7.93299
7.24184
6.55214
5.863
5.17392
4.48467
3.79515
3.10534
2.41527
1.72501
1.03468
0.344542
8.72559
8.00256
7.2899
6.5846
5.88441
5.18769
4.49327
3.80034
3.10835
2.41694
1.72591
1.03518
0.344763
8.7335
8.00868
7.29455
6.58807
5.88696
5.18953
4.49459
3.80127
3.109
2.41741
1.72625
1.03541
0.34483
8.73421
8.00954
7.29543
6.5889
5.88769
5.19016
4.49511
3.80169
3.10934
2.41766
1.72643
1.0355
0.344811
8.72889
8.00598
7.29314
6.5875
5.8869
5.18976
4.49495
3.80167
3.10938
2.41773
1.72649
1.03553
0.344791
8.71883
7.99896
7.28839
6.58438
5.88491
5.18855
4.49425
3.80129
3.10921
2.41767
1.72648
1.03553
0.344793
8.70569
7.9897
7.28202
6.58012
5.88214
5.1868
4.49318
3.80068
3.10888
2.41751
1.72641
1.03552
0.344818
8.69147
7.97964
7.27508
6.57543
5.87907
5.18483
4.49197
3.79996
3.10847
2.4173
1.72633
1.03551
0.34486
8.6783
7.97031
7.26862
6.57107
5.87619
5.18298
4.49082
3.79927
3.10808
2.4171
1.72624
1.0355
0.344908
8.66818
7.96314
7.26366
6.56771
5.87397
5.18155
4.48992
3.79873
3.10777
2.41693
1.72617
1.03549
0.344949
8.66268
7.95925
7.26096
6.56588
5.87275
5.18076
4.48942
3.79843
3.1076
2.41684
1.72613
1.03549
0.344972
8.7204
7.99893
7.28743
6.58297
5.88337
5.18706
4.4929
3.80014
3.10825
2.41689
1.72587
1.03511
0.344668
8.73418
8.00951
7.2954
6.58887
5.88767
5.19014
4.49509
3.80168
3.10933
2.41765
1.72642
1.0355
0.344809
8.73993
8.01422
7.29918
6.59184
5.88997
5.19189
4.4964
3.80265
3.11004
2.41818
1.72679
1.03572
0.344834
8.73879
8.01389
7.29933
6.59226
5.8905
5.19244
4.49692
3.80311
3.11043
2.41849
1.72702
1.03586
0.344855
8.73225
8.00959
7.29663
6.59066
5.88963
5.19204
4.4968
3.80314
3.11054
2.41862
1.72715
1.03595
0.344903
8.72211
8.00264
7.29202
6.5877
5.88781
5.19097
4.49623
3.80288
3.11045
2.41863
1.7272
1.03602
0.344978
8.71039
7.99452
7.28653
6.5841
5.88552
5.18958
4.49541
3.80244
3.11025
2.41857
1.72722
1.03608
0.345071
8.69922
7.98673
7.28124
6.58059
5.88326
5.18817
4.49458
3.80197
3.11001
2.41847
1.72721
1.03613
0.345163
8.69051
7.98065
7.27709
6.57783
5.88147
5.18705
4.4939
3.80158
3.10981
2.41838
1.72719
1.03616
0.345238
8.68575
7.97732
7.27481
6.57631
5.88048
5.18642
4.49351
3.80136
3.10969
2.41833
1.72718
1.03617
0.34528
8.7103
7.99177
7.28248
6.57964
5.88118
5.18565
4.49203
3.79962
3.10795
2.41672
1.72576
1.03501
0.344583
8.72886
8.00594
7.29311
6.58747
5.88687
5.18973
4.49492
3.80164
3.10936
2.41772
1.72648
1.03552
0.344786
8.73881
8.01389
7.29932
6.59225
5.89049
5.19243
4.49691
3.8031
3.11042
2.41848
1.72702
1.03585
0.344853
8.74114
8.0163
7.3016
6.59427
5.89221
5.19385
4.49806
3.80401
3.11112
2.41901
1.7274
1.03609
0.344917
8.73741
8.01429
7.30071
6.59406
5.89239
5.19422
4.4985
3.80445
3.11152
2.41935
1.72767
1.03628
0.345013
8.7295
8.00923
7.29761
6.59229
5.89147
5.19383
4.49842
3.80454
3.11169
2.41955
1.72785
1.03643
0.345141
8.71956
8.00263
7.29338
6.58967
5.88994
5.193
4.49803
3.80441
3.11171
2.41964
1.72797
1.03657
0.345286
8.70971
7.99601
7.28906
6.58694
5.88828
5.19205
4.49752
3.80418
3.11165
2.41967
1.72805
1.03668
0.345427
8.7019
7.99074
7.28558
6.58472
5.88691
5.19124
4.49708
3.80396
3.11157
2.41967
1.7281
1.03676
0.345537
8.6976
7.98784
7.28366
6.58348
5.88613
5.19078
4.49682
3.80383
3.11151
2.41966
1.72812
1.0368
0.345599
8.69615
7.98173
7.27552
6.57491
5.87806
5.18364
4.49077
3.79885
3.1075
2.41645
1.7256
1.03491
0.344523
8.71885
7.99895
7.28836
6.58434
5.88488
5.18851
4.49421
3.80126
3.10918
2.41764
1.72646
1.03552
0.344784
8.73232
8.00962
7.29664
6.59066
5.88962
5.19202
4.49678
3.80313
3.11052
2.41861
1.72714
1.03594
0.344897
8.73746
8.01432
7.30072
6.59407
5.89239
5.19422
4.49849
3.80444
3.11152
2.41935
1.72766
1.03627
0.34501
8.73587
8.01417
7.30137
6.59508
5.89351
5.1953
4.49946
3.80526
3.1122
2.41989
1.72807
1.03655
0.345158
8.72956
8.0106
7.29956
6.59436
5.89342
5.19555
4.49986
3.80571
3.11262
2.42026
1.72838
1.0368
0.345342
8.72076
8.00518
7.29638
6.59263
5.8926
5.19527
4.49989
3.80589
3.11287
2.42052
1.72862
1.03701
0.345543
8.71171
7.99944
7.29288
6.5906
5.89151
5.19476
4.49972
3.80592
3.11299
2.42068
1.7288
1.03719
0.345732
8.7044
7.99476
7.28997
6.58887
5.89054
5.19427
4.49952
3.80588
3.11304
2.42077
1.72891
1.03732
0.345879
8.70035
7.99216
7.28834
6.58788
5.88997
5.19397
4.49938
3.80584
3.11305
2.42082
1.72897
1.03738
0.34596
8.67938
7.96983
7.26726
6.56932
5.87435
5.18124
4.48926
3.79793
3.10695
2.41614
1.72543
1.03482
0.344492
8.7058
7.98974
7.28203
6.5801
5.88211
5.18676
4.49314
3.80064
3.10884
2.41747
1.72639
1.0355
0.344806
8.72226
8.00273
7.29206
6.58771
5.8878
5.19096
4.49621
3.80286
3.11043
2.41861
1.72719
1.03601
0.34497
8.72964
8.00931
7.29766
6.59231
5.89148
5.19383
4.49841
3.80453
3.11168
2.41954
1.72784
1.03643
0.345135
8.72965
8.01066
7.2996
6.59438
5.89343
5.19555
4.49986
3.80571
3.11262
2.42026
1.72838
1.03679
0.345339
8.7244
8.00825
7.29887
6.59458
5.89409
5.19639
4.50071
3.80649
3.11329
2.42081
1.72882
1.03712
0.34558
8.71628
8.00371
7.29657
6.59364
5.89392
5.19663
4.50113
3.80696
3.11375
2.42123
1.72917
1.03742
0.345836
8.70763
7.99863
7.29376
6.59223
5.89336
5.19654
4.5013
3.80724
3.11406
2.42152
1.72944
1.03766
0.346073
8.70055
7.99438
7.29133
6.59094
5.89276
5.19635
4.50133
3.80738
3.11424
2.42171
1.72962
1.03784
0.346257
8.6966
7.99201
7.28995
6.59019
5.89239
5.1962
4.50131
3.80743
3.11433
2.42181
1.72972
1.03793
0.346357
8.66195
7.95748
7.25872
6.56353
5.87051
5.17876
4.48769
3.79697
3.10639
2.41582
1.72526
1.03474
0.344485
8.69168
7.97975
7.27513
6.57544
5.87905
5.18481
4.49193
3.79992
3.10844
2.41726
1.7263
1.03549
0.344845
8.71065
7.99467
7.28662
6.58415
5.88554
5.18957
4.4954
3.80242
3.11023
2.41855
1.7272
1.03606
0.34506
8.7198
8.00279
7.29348
6.58973
5.88997
5.19302
4.49803
3.8044
3.1117
2.41963
1.72796
1.03656
0.345278
8.72095
8.00531
7.29647
6.59269
5.89263
5.19529
4.4999
3.80589
3.11286
2.42051
1.72862
1.03701
0.345537
8.71639
8.00379
7.29662
6.59367
5.89394
5.19664
4.50114
3.80697
3.11375
2.42122
1.72917
1.03742
0.345833
8.70862
7.99992
7.29506
6.5934
5.89434
5.19734
4.50192
3.80772
3.11442
2.42179
1.72963
1.03779
0.346141
8.70012
7.99532
7.29282
6.59254
5.89425
5.19763
4.50239
3.80822
3.1149
2.42221
1.72998
1.03809
0.346423
8.6931
7.9914
7.29079
6.59164
5.89399
5.19772
4.50263
3.80853
3.1152
2.42249
1.73023
1.03832
0.34664
8.68916
7.98919
7.28962
6.59109
5.8938
5.19772
4.50273
3.80867
3.11535
2.42263
1.73036
1.03844
0.346758
8.64612
7.9463
7.25099
6.5583
5.86705
5.17651
4.48628
3.79611
3.10588
2.41554
1.72512
1.03469
0.344493
8.67861
7.9705
7.26873
6.57112
5.8762
5.18297
4.49079
3.79924
3.10804
2.41706
1.72621
1.03547
0.344891
8.69958
7.98697
7.28139
6.58068
5.8833
5.18819
4.49458
3.80196
3.10999
2.41845
1.72718
1.03611
0.34515
8.71006
7.99626
7.28922
6.58704
5.88834
5.19208
4.49754
3.80418
3.11164
2.41966
1.72804
1.03667
0.345416
8.71201
7.99965
7.29302
6.5907
5.89157
5.1948
4.49974
3.80592
3.11299
2.42068
1.72879
1.03718
0.345723
8.70785
7.99879
7.29387
6.59231
5.8934
5.19657
4.50131
3.80725
3.11406
2.42152
1.72944
1.03766
0.346068
8.70023
7.99541
7.29288
6.59259
5.89428
5.19765
4.5024
3.80823
3.1149
2.42221
1.72998
1.03809
0.34642
8.69176
7.99117
7.2911
6.59217
5.89457
5.19827
4.50311
3.80892
3.11552
2.42273
1.73042
1.03845
0.346741
8.68471
7.98749
7.2894
6.59159
5.8946
5.19858
4.50354
3.80937
3.11593
2.42309
1.73072
1.03872
0.346985
8.68075
7.9854
7.2884
6.59122
5.89456
5.19871
4.50374
3.80958
3.11614
2.42327
1.73088
1.03886
0.347118
8.63409
7.93782
7.24513
6.55434
5.86443
5.17482
4.48521
3.79545
3.10549
2.41533
1.72501
1.03465
0.344505
8.6686
7.96342
7.26383
6.5678
5.87401
5.18156
4.48991
3.7987
3.10774
2.4169
1.72614
1.03546
0.34493
8.69098
7.98097
7.2773
6.57796
5.88154
5.18708
4.49391
3.80158
3.1098
2.41836
1.72717
1.03614
0.345223
8.70235
7.99106
7.2858
6.58486
5.887
5.19129
4.49711
3.80398
3.11157
2.41966
1.72809
1.03674
0.345524
8.7048
7.99505
7.29018
6.58901
5.89063
5.19432
4.49955
3.8059
3.11305
2.42077
1.72891
1.03731
0.345868
8.70087
7.99462
7.2915
6.59106
5.89284
5.1964
4.50136
3.8074
3.11425
2.42172
1.72962
1.03784
0.346248
8.69331
7.99157
7.29092
6.59173
5.89405
5.19776
4.50266
3.80854
3.11521
2.42249
1.73023
1.03832
0.346634
8.68481
7.98757
7.28946
6.59164
5.89463
5.19861
4.50356
3.80938
3.11594
2.4231
1.73073
1.03872
0.346982
8.67772
7.98406
7.288
6.5913
5.89486
5.19909
4.50412
3.80993
3.11643
2.42351
1.73107
1.03901
0.347247
8.67373
7.98206
7.28712
6.59104
5.89493
5.19931
4.50439
3.8102
3.11667
2.42372
1.73125
1.03916
0.347391
8.62761
7.93326
7.24199
6.55222
5.86302
5.17391
4.48464
3.7951
3.10529
2.41522
1.72496
1.03464
0.344513
8.66319
7.95959
7.26118
6.56601
5.87282
5.1808
4.48943
3.79842
3.10757
2.41681
1.7261
1.03546
0.344952
8.6863
7.9777
7.27507
6.57648
5.88058
5.18648
4.49354
3.80137
3.10968
2.41831
1.72716
1.03616
0.345263
8.69813
7.98821
7.28393
6.58366
5.88625
5.19085
4.49686
3.80385
3.11152
2.41966
1.72811
1.03678
0.345584
8.70082
7.9925
7.28859
6.58806
5.89009
5.19405
4.49943
3.80587
3.11307
2.42082
1.72896
1.03737
0.345947
8.697
7.9923
7.29017
6.59034
5.8925
5.19628
4.50136
3.80746
3.11435
2.42181
1.72972
1.03793
0.346346
8.68946
7.98941
7.28979
6.59122
5.89389
5.19778
4.50278
3.8087
3.11537
2.42264
1.73036
1.03843
0.346749
8.68094
7.98554
7.28851
6.5913
5.89462
5.19876
4.50377
3.8096
3.11615
2.42328
1.73088
1.03885
0.347112
8.67382
7.98212
7.28717
6.59108
5.89496
5.19933
4.50441
3.81021
3.11668
2.42373
1.73125
1.03916
0.347388
8.66981
7.98016
7.28636
6.59089
5.89508
5.1996
4.50471
3.81051
3.11694
2.42395
1.73144
1.03932
0.347537
8.62764
7.93328
7.242
6.55223
5.86303
5.17392
4.48464
3.79511
3.10529
2.41522
1.72496
1.03463
0.344512
8.66322
7.95961
7.26119
6.56602
5.87283
5.1808
4.48943
3.79842
3.10757
2.41681
1.7261
1.03546
0.344951
8.68633
7.97772
7.27509
6.57649
5.88059
5.18648
4.49355
3.80137
3.10968
2.41831
1.72716
1.03615
0.345262
8.69816
7.98823
7.28394
6.58367
5.88626
5.19086
4.49687
3.80385
3.11152
2.41965
1.72811
1.03678
0.345582
8.70085
7.99253
7.28861
6.58807
5.8901
5.19405
4.49943
3.80587
3.11307
2.42082
1.72896
1.03737
0.345946
8.69703
7.99232
7.29018
6.59035
5.89251
5.19628
4.50136
3.80746
3.11434
2.42181
1.72972
1.03793
0.346344
8.68949
7.98943
7.28981
6.59123
5.8939
5.19779
4.50278
3.8087
3.11537
2.42264
1.73036
1.03843
0.346747
8.68098
7.98556
7.28853
6.59131
5.89463
5.19876
4.50377
3.80961
3.11615
2.42328
1.73088
1.03885
0.34711
8.67385
7.98214
7.28718
6.59109
5.89496
5.19934
4.50441
3.81021
3.11668
2.42372
1.73125
1.03916
0.347386
8.66984
7.98019
7.28637
6.5909
5.89509
5.1996
4.50472
3.81051
3.11694
2.42395
1.73144
1.03932
0.347535
8.63418
7.93789
7.24518
6.55437
5.86445
5.17483
4.48522
3.79546
3.10549
2.41533
1.72501
1.03465
0.344502
8.66869
7.96348
7.26387
6.56784
5.87403
5.18157
4.48992
3.79871
3.10774
2.4169
1.72613
1.03546
0.344927
8.69106
7.98103
7.27734
6.57799
5.88157
5.1871
4.49392
3.80158
3.1098
2.41836
1.72717
1.03614
0.34522
8.70244
7.99113
7.28585
6.5849
5.88702
5.19131
4.49712
3.80398
3.11157
2.41966
1.72809
1.03674
0.345521
8.70489
7.99512
7.29022
6.58904
5.89065
5.19434
4.49956
3.8059
3.11305
2.42077
1.7289
1.0373
0.345864
8.70096
7.99469
7.29155
6.59109
5.89286
5.19641
4.50137
3.8074
3.11425
2.42172
1.72962
1.03783
0.346244
8.69341
7.99164
7.29097
6.59176
5.89407
5.19777
4.50266
3.80855
3.11521
2.42249
1.73023
1.03831
0.346629
8.68491
7.98764
7.28951
6.59167
5.89465
5.19862
4.50356
3.80938
3.11594
2.42309
1.73072
1.03871
0.346977
8.67781
7.98413
7.28804
6.59133
5.89488
5.1991
4.50412
3.80993
3.11642
2.42351
1.73107
1.039
0.347241
8.67382
7.98213
7.28717
6.59107
5.89495
5.19932
4.50439
3.8102
3.11667
2.42372
1.73124
1.03916
0.347385
8.64626
7.9464
7.25106
6.55835
5.86708
5.17653
4.48629
3.79611
3.10587
2.41554
1.72511
1.03468
0.344489
8.67875
7.9706
7.2688
6.57117
5.87623
5.18299
4.4908
3.79924
3.10804
2.41706
1.7262
1.03547
0.344887
8.69972
7.98707
7.28146
6.58073
5.88334
5.18821
4.49459
3.80196
3.10999
2.41845
1.72718
1.0361
0.345145
8.7102
7.99636
7.28929
6.58709
5.88837
5.1921
4.49755
3.80419
3.11164
2.41965
1.72804
1.03666
0.34541
8.71215
7.99976
7.2931
6.59075
5.8916
5.19482
4.49975
3.80593
3.11299
2.42067
1.72878
1.03717
0.345717
8.70799
7.99889
7.29395
6.59236
5.89344
5.19659
4.50132
3.80725
3.11406
2.42152
1.72943
1.03765
0.34606
8.70039
7.99551
7.29296
6.59264
5.89431
5.19767
4.50241
3.80823
3.1149
2.4222
1.72998
1.03809
0.346412
8.69192
7.99128
7.29118
6.59222
5.8946
5.19828
4.50312
3.80892
3.11552
2.42273
1.73041
1.03845
0.346732
8.68487
7.9876
7.28948
6.59164
5.89463
5.1986
4.50355
3.80937
3.11593
2.42309
1.73072
1.03871
0.346976
8.6809
7.98551
7.28847
6.59126
5.89458
5.19873
4.50375
3.80958
3.11613
2.42327
1.73087
1.03885
0.347109
8.66213
7.95762
7.25881
6.56359
5.87055
5.17878
4.48771
3.79697
3.10638
2.41582
1.72525
1.03473
0.34448
8.69186
7.97988
7.27522
6.57551
5.87909
5.18483
4.49195
3.79993
3.10843
2.41726
1.72629
1.03548
0.34484
8.71082
7.99481
7.28672
6.58421
5.88558
5.1896
4.49542
3.80243
3.11023
2.41854
1.72719
1.03606
0.345053
8.71998
8.00292
7.29357
6.5898
5.89001
5.19304
4.49804
3.80441
3.1117
2.41962
1.72796
1.03655
0.34527
8.72113
8.00544
7.29656
6.59275
5.89267
5.19531
4.49991
3.80589
3.11286
2.42051
1.72861
1.037
0.345528
8.71657
8.00392
7.29672
6.59374
5.89398
5.19666
4.50115
3.80697
3.11375
2.42122
1.72916
1.03741
0.345823
8.70881
8.00006
7.29516
6.59347
5.89438
5.19736
4.50193
3.80772
3.11442
2.42178
1.72962
1.03778
0.34613
8.70032
7.99546
7.29292
6.59261
5.89429
5.19765
4.50239
3.80822
3.11489
2.4222
1.72997
1.03808
0.346412
8.6933
7.99154
7.29089
6.5917
5.89403
5.19774
4.50264
3.80852
3.1152
2.42248
1.73022
1.03831
0.346628
8.68935
7.98932
7.28972
6.59115
5.89383
5.19774
4.50274
3.80867
3.11534
2.42262
1.73035
1.03842
0.346746
8.67959
7.96998
7.26737
6.56939
5.87439
5.18127
4.48927
3.79793
3.10694
2.41613
1.72541
1.03481
0.344485
8.70601
7.9899
7.28214
6.58017
5.88216
5.18679
4.49316
3.80065
3.10884
2.41747
1.72638
1.03549
0.344799
8.72247
8.00288
7.29217
6.58779
5.88785
5.19099
4.49622
3.80286
3.11043
2.41861
1.72718
1.036
0.344962
8.72985
8.00947
7.29777
6.59239
5.89153
5.19386
4.49843
3.80453
3.11168
2.41953
1.72783
1.03642
0.345126
8.72986
8.01082
7.29971
6.59446
5.89348
5.19558
4.49987
3.80571
3.11261
2.42025
1.72837
1.03678
0.345329
8.72462
8.00841
7.29898
6.59466
5.89413
5.19641
4.50072
3.80648
3.11328
2.4208
1.7288
1.03711
0.345568
8.7165
8.00387
7.29668
6.59371
5.89396
5.19665
4.50114
3.80696
3.11374
2.42121
1.72916
1.03741
0.345823
8.70786
7.99879
7.29387
6.5923
5.8934
5.19656
4.5013
3.80723
3.11405
2.42151
1.72942
1.03765
0.34606
8.70078
7.99455
7.29144
6.59101
5.8928
5.19636
4.50133
3.80737
3.11423
2.4217
1.72961
1.03783
0.346242
8.69682
7.99216
7.29005
6.59025
5.89243
5.19622
4.50131
3.80743
3.11431
2.42179
1.7297
1.03792
0.346343
8.69638
7.98189
7.27563
6.57499
5.8781
5.18366
4.49078
3.79885
3.10749
2.41644
1.72559
1.0349
0.344515
8.71908
7.99912
7.28848
6.58442
5.88493
5.18854
4.49422
3.80126
3.10917
2.41763
1.72644
1.03551
0.344776
8.73255
8.00979
7.29676
6.59074
5.88967
5.19205
4.49679
3.80313
3.11052
2.4186
1.72713
1.03593
0.344888
8.73769
8.01449
7.30084
6.59415
5.89244
5.19425
4.4985
3.80444
3.11151
2.41934
1.72765
1.03626
0.344999
8.7361
8.01434
7.30148
6.59516
5.89355
5.19532
4.49947
3.80526
3.11219
2.41987
1.72806
1.03654
0.345146
8.72979
8.01077
7.29968
6.59443
5.89346
5.19557
4.49987
3.8057
3.11261
2.42025
1.72837
1.03678
0.345329
8.721
8.00535
7.29649
6.5927
5.89264
5.19529
4.49989
3.80588
3.11285
2.4205
1.7286
1.03699
0.345528
8.71194
7.99961
7.29299
6.59067
5.89154
5.19477
4.49972
3.8059
3.11297
2.42066
1.72878
1.03717
0.345716
8.70463
7.99493
7.29008
6.58893
5.89057
5.19428
4.49951
3.80586
3.11302
2.42075
1.72889
1.0373
0.345863
8.70057
7.99231
7.28845
6.58795
5.89
5.19398
4.49938
3.80582
3.11303
2.42079
1.72895
1.03736
0.345944
8.71054
7.99194
7.2826
6.57971
5.88123
5.18568
4.49204
3.79961
3.10793
2.4167
1.72574
1.035
0.344574
8.7291
8.00612
7.29323
6.58755
5.88692
5.18975
4.49493
3.80164
3.10935
2.4177
1.72646
1.03551
0.344777
8.73904
8.01406
7.29944
6.59233
5.89053
5.19245
4.49692
3.8031
3.11041
2.41847
1.727
1.03584
0.344843
8.74137
8.01647
7.30172
6.59435
5.89225
5.19387
4.49806
3.804
3.11111
2.419
1.72738
1.03608
0.344906
8.73764
8.01446
7.30082
6.59413
5.89243
5.19424
4.4985
3.80444
3.11151
2.41933
1.72765
1.03626
0.345
8.72974
8.00939
7.29772
6.59235
5.8915
5.19384
4.49841
3.80452
3.11167
2.41952
1.72783
1.03642
0.345126
8.71979
8.00279
7.29348
6.58974
5.88997
5.19301
4.49802
3.80439
3.11169
2.41961
1.72795
1.03655
0.34527
8.70994
7.99618
7.28916
6.587
5.8883
5.19205
4.49751
3.80416
3.11162
2.41964
1.72803
1.03666
0.34541
8.70213
7.9909
7.28568
6.58478
5.88693
5.19124
4.49707
3.80394
3.11154
2.41964
1.72807
1.03673
0.34552
8.69782
7.98798
7.28376
6.58353
5.88615
5.19078
4.4968
3.8038
3.11148
2.41963
1.72809
1.03677
0.345581
8.72063
7.9991
7.28755
6.58304
5.88341
5.18707
4.4929
3.80013
3.10823
2.41687
1.72585
1.03509
0.344659
8.73442
8.00968
7.29552
6.58895
5.88771
5.19016
4.49509
3.80167
3.10931
2.41763
1.7264
1.03548
0.3448
8.74016
8.01438
7.29929
6.59191
5.89
5.1919
4.4964
3.80264
3.11003
2.41816
1.72677
1.03571
0.344823
8.73902
8.01404
7.29944
6.59232
5.89053
5.19245
4.49692
3.80309
3.11041
2.41847
1.727
1.03584
0.344843
8.73247
8.00974
7.29673
6.59072
5.88966
5.19204
4.49679
3.80312
3.11051
2.4186
1.72712
1.03593
0.344889
8.72232
8.00279
7.29211
6.58775
5.88783
5.19097
4.49621
3.80285
3.11042
2.4186
1.72718
1.036
0.344962
8.71061
7.99466
7.28662
6.58414
5.88553
5.18957
4.49539
3.80241
3.11021
2.41853
1.72718
1.03606
0.345053
8.69943
7.98687
7.28132
6.58063
5.88327
5.18816
4.49455
3.80194
3.10997
2.41843
1.72717
1.0361
0.345145
8.69071
7.98078
7.27717
6.57786
5.88147
5.18703
4.49387
3.80154
3.10977
2.41834
1.72715
1.03613
0.345219
8.68594
7.97745
7.27488
6.57634
5.88048
5.1864
4.49348
3.80132
3.10965
2.41829
1.72714
1.03614
0.34526
8.72581
8.00272
7.29
6.58466
5.88444
5.1877
4.49326
3.80032
3.10833
2.41692
1.72589
1.03516
0.344753
8.73372
8.00884
7.29465
6.58813
5.88699
5.18954
4.49458
3.80125
3.10898
2.41738
1.72623
1.03539
0.34482
8.73442
8.00969
7.29552
6.58895
5.88772
5.19017
4.4951
3.80167
3.10931
2.41763
1.7264
1.03548
0.3448
8.72909
8.00611
7.29323
6.58755
5.88692
5.18976
4.49493
3.80164
3.10935
2.4177
1.72646
1.03551
0.344778
8.71902
7.99908
7.28846
6.58441
5.88492
5.18853
4.49422
3.80126
3.10917
2.41763
1.72644
1.03551
0.344777
8.70587
7.98981
7.28208
6.58014
5.88214
5.18677
4.49315
3.80064
3.10883
2.41746
1.72638
1.03549
0.3448
8.69164
7.97974
7.27513
6.57545
5.87905
5.1848
4.49193
3.79991
3.10842
2.41725
1.72628
1.03548
0.34484
8.67846
7.97041
7.26867
6.57108
5.87617
5.18294
4.49077
3.79921
3.10803
2.41704
1.72619
1.03546
0.344887
8.66834
7.96324
7.2637
6.56771
5.87394
5.18151
4.48987
3.79867
3.10771
2.41688
1.72612
1.03545
0.344927
8.66282
7.95933
7.26099
6.56587
5.87272
5.18072
4.48937
3.79837
3.10754
2.41678
1.72608
1.03545
0.34495
8.72544
8.00231
7.2896
6.5843
5.88412
5.18743
4.49305
3.80015
3.10819
2.41682
1.72583
1.03514
0.344799
8.72584
8.00274
7.29002
6.58467
5.88445
5.1877
4.49327
3.80033
3.10833
2.41692
1.72589
1.03516
0.344754
8.72067
7.99913
7.28757
6.58307
5.88343
5.18708
4.49291
3.80013