# vtk DataFile Version 2.0
I need something to put here
ASCII

DATASET STRUCTURED_GRID
DIMENSIONS 41 11 21
POINTS 9471 float
0.000000 0.000000 0.000000
0.100000 0.000000 0.000000
0.200000 0.000000 0.000000
0.300000 0.000000 0.000000
0.400000 0.000000 0.000000
0.500000 0.000000 0.000000
0.600000 0.000000 0.000000
0.700000 0.000000 0.000000
0.800000 0.000000 0.000000
0.900000 0.000000 0.000000
1.000000 0.000000 0.000000
1.100000 0.000000 0.000000
1.200000 0.000000 0.000000
1.300000 0.000000 0.000000
1.400000 0.000000 0.000000
1.500000 0.000000 0.000000
1.600000 0.000000 0.000000
1.700000 0.000000 0.000000
1.800000 0.000000 0.000000
1.900000 0.000000 0.000000
2.000000 0.000000 0.000000
2.100000 0.000000 0.000000
2.200000 0.000000 0.000000
2.300000 0.000000 0.000000
2.400000 0.000000 0.000000
2.500000 0.000000 0.000000
2.600000 0.000000 0.000000
2.700000 0.000000 0.000000
2.800000 0.000000 0.000000
2.900000 0.000000 0.000000
3.000000 0.000000 0.000000
3.100000 0.000000 0.000000
3.200000 0.000000 0.000000
3.300000 0.000000 0.000000
3.400000 0.000000 0.000000
3.500000 0.000000 0.000000
3.600000 0.000000 0.000000
3.700000 0.000000 0.000000
3.800000 0.000000 0.000000
3.900000 0.000000 0.000000
4.000000 0.000000 0.000000
0.000000 0.100000 0.000000
0.100000 0.100000 0.000000
0.200000 0.100000 0.000000
0.300000 0.100000 0.000000
0.400000 0.100000 0.000000
0.500000 0.100000 0.000000
0.600000 0.100000 0.000000
0.700000 0.100000 0.000000
0.800000 0.100000 0.000000
0.900000 0.100000 0.000000
1.000000 0.100000 0.000000
1.100000 0.100000 0.000000
1.200000 0.100000 0.000000
1.300000 0.100000 0.000000
1.400000 0.100000 0.000000
1.500000 0.100000 0.000000
1.600000 0.100000 0.000000
1.700000 0.100000 0.000000
1.800000 0.100000 0.000000
1.900000 0.100000 0.000000
2.000000 0.100000 0.000000
2.100000 0.100000 0.000000
2.200000 0.100000 0.000000
2.300000 0.100000 0.000000
2.400000 0.100000 0.000000
2.500000 0.100000 0.000000
2.600000 0.100000 0.000000
2.700000 0.100000 0.000000
2.800000 0.100000 0.000000
2.900000 0.100000 0.000000
3.000000 0.100000 0.000000
3.100000 0.100000 0.000000
3.200000 0.100000 0.000000
3.300000 0.100000 0.000000
3.400000 0.100000 0.000000
3.500000 0.100000 0.000000
3.600000 0.100000 0.000000
3.700000 0.100000 0.000000
3.800000 0.100000 0.000000
3.900000 0.100000 0.000000
4.000000 0.100000 0.000000
0.000000 0.200000 0.000000
0.100000 0.200000 0.000000
0.200000 0.200000 0.000000
0.300000 0.200000 0.000000
0.400000 0.200000 0.000000
0.500000 0.200000 0.000000
0.600000 0.200000 0.000000
0.700000 0.200000 0.000000
0.800000 0.200000 0.000000
0.900000 0.200000 0.000000
1.000000 0.200000 0.000000
1.100000 0.200000 0.000000
1.200000 0.200000 0.000000
1.300000 0.200000 0.000000
1.400000 0.200000 0.000000
1.500000 0.200000 0.000000
1.600000 0.200000 0.000000
1.700000 0.200000 0.000000
1.800000 0.200000 0.000000
1.900000 0.200000 0.000000
2.000000 0.200000 0.000000
2.100000 0.200000 0.000000
2.200000 0.200000 0.000000
2.300000 0.200000 0.000000
2.400000 0.200000 0.000000
2.500000 0.200000 0.000000
2.600000 0.200000 0.000000
2.700000 0.200000 0.000000
2.800000 0.200000 0.000000
2.900000 0.200000 0.000000
3.000000 0.200000 0.000000
3.100000 0.200000 0.000000
3.200000 0.200000 0.000000
3.300000 0.200000 0.000000
3.400000 0.200000 0.000000
3.500000 0.200000 0.000000
3.600000 0.200000 0.000000
3.700000 0.200000 0.000000
3.800000 0.200000 0.000000
3.900000 0.200000 0.000000
4.000000 0.200000 0.000000
0.000000 0.300000 0.000000
0.100000 0.300000 0.000000
0.200000 0.300000 0.000000
0.300000 0.300000 0.000000
0.400000 0.300000 0.000000
0.500000 0.300000 0.000000
0.600000 0.300000 0.000000
0.700000 0.300000 0.000000
0.800000 0.300000 0.000000
0.900000 0.300000 0.000000
1.000000 0.300000 0.000000
1.100000 0.300000 0.000000
1.200000 0.300000 0.000000
1.300000 0.300000 0.000000
1.400000 0.300000 0.000000
1.500000 0.300000 0.000000
1.600000 0.300000 0.000000
1.700000 0.300000 0.000000
1.800000 0.300000 0.000000
1.900000 0.300000 0.000000
2.000000 0.300000 0.000000
2.100000 0.300000 0.000000
2.200000 0.300000 0.000000
2.300000 0.300000 0.000000
2.400000 0.300000 0.000000
2.500000 0.300000 0.000000
2.600000 0.300000 0.000000
2.700000 0.300000 0.000000
2.800000 0.300000 0.000000
2.900000 0.300000 0.000000
3.000000 0.300000 0.000000
3.100000 0.300000 0.000000
3.200000 0.300000 0.000000
3.300000 0.300000 0.000000
3.400000 0.300000 0.000000
3.500000 0.300000 0.000000
3.600000 0.300000 0.000000
3.700000 0.300000 0.000000
3.800000 0.300000 0.000000
3.900000 0.300000 0.000000
4.000000 0.300000 0.000000
0.000000 0.400000 0.000000
0.100000 0.400000 0.000000
0.200000 0.400000 0.000000
0.300000 0.400000 0.000000
0.400000 0.400000 0.000000
0.500000 0.400000 0.000000
0.600000 0.400000 0.000000
0.700000 0.400000 0.000000
0.800000 0.400000 0.000000
0.900000 0.400000 0.000000
1.000000 0.400000 0.000000
1.100000 0.400000 0.000000
1.200000 0.400000 0.000000
1.300000 0.400000 0.000000
1.400000 0.400000 0.000000
1.500000 0.400000 0.000000
1.600000 0.400000 0.000000
1.700000 0.400000 0.000000
1.800000 0.400000 0.000000
1.900000 0.400000 0.000000
2.000000 0.400000 0.000000
2.100000 0.400000 0.000000
2.200000 0.400000 0.000000
2.300000 0.400000 0.000000
2.400000 0.400000 0.000000
2.500000 0.400000 0.000000
2.600000 0.400000 0.000000
2.700000 0.400000 0.000000
2.800000 0.400000 0.000000
2.900000 0.400000 0.000000
3.000000 0.400000 0.000000
3.100000 0.400000 0.000000
3.200000 0.400000 0.000000
3.300000 0.400000 0.000000
3.400000 0.400000 0.000000
3.500000 0.400000 0.000000
3.600000 0.400000 0.000000
3.700000 0.400000 0.000000
3.800000 0.400000 0.000000
3.900000 0.400000 0.000000
4.000000 0.400000 0.000000
0.000000 0.500000 0.000000
0.100000 0.500000 0.000000
0.200000 0.500000 0.000000
0.300000 0.500000 0.000000
0.400000 0.500000 0.000000
0.500000 0.500000 0.000000
0.600000 0.500000 0.000000
0.700000 0.500000 0.000000
0.800000 0.500000 0.000000
0.900000 0.500000 0.000000
1.000000 0.500000 0.000000
1.100000 0.500000 0.000000
1.200000 0.500000 0.000000
1.300000 0.500000 0.000000
1.400000 0.500000 0.000000
1.500000 0.500000 0.000000
1.600000 0.500000 0.000000
1.700000 0.500000 0.000000
1.800000 0.500000 0.000000
1.900000 0.500000 0.000000
2.000000 0.500000 0.000000
2.100000 0.500000 0.000000
2.200000 0.500000 0.000000
2.300000 0.500000 0.000000
2.400000 0.500000 0.000000
2.500000 0.500000 0.000000
2.600000 0.500000 0.000000
2.700000 0.500000 0.000000
2.800000 0.500000 0.000000
2.900000 0.500000 0.000000
3.000000 0.500000 0.000000
3.100000 0.500000 0.000000
3.200000 0.500000 0.000000
3.300000 0.500000 0.000000
3.400000 0.500000 0.000000
3.500000 0.500000 0.000000
3.600000 0.500000 0.000000
3.700000 0.500000 0.000000
3.800000 0.500000 0.000000
3.900000 0.500000 0.000000
4.000000 0.500000 0.000000
0.000000 0.600000 0.000000
0.100000 0.600000 0.000000
0.200000 0.600000 0.000000
0.300000 0.600000 0.000000
0.400000 0.600000 0.000000
0.500000 0.600000 0.000000
0.600000 0.600000 0.000000
0.700000 0.600000 0.000000
0.800000 0.600000 0.000000
0.900000 0.600000 0.000000
1.000000 0.600000 0.000000
1.100000 0.600000 0.000000
1.200000 0.600000 0.000000
1.300000 0.600000 0.000000
1.400000 0.600000 0.000000
1.500000 0.600000 0.000000
1.600000 0.600000 0.000000
1.700000 0.600000 0.000000
1.800000 0.600000 0.000000
1.900000 0.600000 0.000000
2.000000 0.600000 0.000000
2.100000 0.600000 0.000000
2.200000 0.600000 0.000000
2.300000 0.600000 0.000000
2.400000 0.600000 0.000000
2.500000 0.600000 0.000000
2.600000 0.600000 0.000000
2.700000 0.600000 0.000000
2.800000 0.600000 0.000000
2.900000 0.600000 0.000000
3.000000 0.600000 0.000000
3.100000 0.600000 0.000000
3.200000 0.600000 0.000000
3.300000 0.600000 0.000000
3.400000 0.600000 0.000000
3.500000 0.600000 0.000000
3.600000 0.600000 0.000000
3.700000 0.600000 0.000000
3.800000 0.600000 0.000000
3.900000 0.600000 0.000000
4.000000 0.600000 0.000000
0.000000 0.700000 0.000000
0.100000 0.700000 0.000000
0.200000 0.700000 0.000000
0.300000 0.700000 0.000000
0.400000 0.700000 0.000000
0.500000 0.700000 0.000000
0.600000 0.700000 0.000000
0.700000 0.700000 0.000000
0.800000 0.700000 0.000000
0.900000 0.700000 0.000000
1.000000 0.700000 0.000000
1.100000 0.700000 0.000000
1.200000 0.700000 0.000000
1.300000 0.700000 0.000000
1.400000 0.700000 0.000000
1.500000 0.700000 0.000000
1.600000 0.700000 0.000000
1.700000 0.700000 0.000000
1.800000 0.700000 0.000000
1.900000 0.700000 0.000000
2.000000 0.700000 0.000000
2.100000 0.700000 0.000000
2.200000 0.700000 0.000000
2.300000 0.700000 0.000000
2.400000 0.700000 0.000000
2.500000 0.700000 0.000000
2.600000 0.700000 0.000000
2.700000 0.700000 0.000000
2.800000 0.700000 0.000000
2.900000 0.700000 0.000000
3.000000 0.700000 0.000000
3.100000 0.700000 0.000000
3.200000 0.700000 0.000000
3.300000 0.700000 0.000000
3.400000 0.700000 0.000000
3.500000 0.700000 0.000000
3.600000 0.700000 0.000000
3.700000 0.700000 0.000000
3.800000 0.700000 0.000000
3.900000 0.700000 0.000000
4.000000 0.700000 0.000000
0.000000 0.800000 0.000000
0.100000 0.800000 0.000000
0.200000 0.800000 0.000000
0.300000 0.800000 0.000000
0.400000 0.800000 0.000000
0.500000 0.800000 0.000000
0.600000 0.800000 0.000000
0.700000 0.800000 0.000000
0.800000 0.800000 0.000000
0.900000 0.800000 0.000000
1.000000 0.800000 0.000000
1.100000 0.800000 0.000000
1.200000 0.800000 0.000000
1.300000 0.800000 0.000000
1.400000 0.800000 0.000000
1.500000 0.800000 0.000000
1.600000 0.800000 0.000000
1.700000 0.800000 0.000000
1.800000 0.800000 0.000000
1.900000 0.800000 0.000000
2.000000 0.800000 0.000000
2.100000 0.800000 0.000000
2.200000 0.800000 0.000000
2.300000 0.800000 0.000000
2.400000 0.800000 0.000000
2.500000 0.800000 0.000000
2.600000 0.800000 0.000000
2.700000 0.800000 0.000000
2.800000 0.800000 0.000000
2.900000 0.800000 0.000000
3.000000 0.800000 0.000000
3.100000 0.800000 0.000000
3.200000 0.800000 0.000000
3.300000 0.800000 0.000000
3.400000 0.800000 0.000000
3.500000 0.800000 0.000000
3.600000 0.800000 0.000000
[...]
CELL_DATA 8000
SCALARS pressure float 1
LOOKUP_TABLE default
-24.0617
-22.4805
-21.3076
-20.4243
-19.7082
-19.0788
-18.487
-17.902
-17.3036
-16.679
-16.0207
-15.3263
-14.5985
-13.844
-13.0727
-12.2967
-11.5288
-10.7811
-10.0645
-9.38655
-8.75112
-8.15825
-7.60477
-7.08543
-6.59411
-6.12473
-5.67189
-5.2311
-4.79887
-4.37258
-3.95035
-3.53084
-3.11314
-2.69662
-2.28087
-1.86563
-1.4507
-1.03599
-0.621442
-0.20706
-25.2443
-22.6537
-21.2448
-20.3319
-19.6328
-19.0253
-18.4511
-17.8787
-17.289
-16.6702
-16.0156
-15.3235
-14.5968
-13.8427
-13.0713
-12.295
-11.5265
-10.7785
-10.0616
-9.38365
-8.74848
-8.15605
-7.60309
-7.08426
-6.59336
-6.1243
-5.67168
-5.23102
-4.79887
-4.37262
-3.9504
-3.53089
-3.11318
-2.69666
-2.2809
-1.86565
-1.45072
-1.036
-0.621442
-0.207044
-26.9327
-23.142
-21.3312
-20.3013
-19.5808
-18.9811
-18.4214
-17.863
-17.2847
-16.674
-16.0241
-15.3334
-14.6054
-13.8477
-13.0716
-12.2897
-11.5158
-10.7629
-10.0426
-9.36299
-8.72805
-8.13739
-7.58713
-7.07136
-6.58341
-6.11692
-5.66637
-5.22731
-4.79633
-4.37092
-3.94928
-3.53016
-3.11271
-2.69635
-2.28071
-1.86553
-1.45064
-1.03594
-0.6214
-0.207007
-28.6949
-23.7721
-21.5303
-20.3457
-19.5768
-18.969
-18.4157
-17.8678
-17.2996
-16.6964
-16.0502
-15.3588
-14.6261
-13.8607
-13.0747
-12.2822
-11.4977
-10.7356
-10.0085
-9.32558
-8.6908
-8.10314
-7.55767
-7.04736
-6.56474
-6.10295
-5.65624
-5.22016
-4.79138
-4.36755
-3.94702
-3.52866
-3.11173
-2.69572
-2.2803
-1.86527
-1.45047
-1.03584
-0.621333
-0.20697
-30.3477
-24.4295
-21.7863
-20.4429
-19.6148
-18.9895
-18.4363
-17.8953
-17.3353
-16.7384
-16.0944
-15.4
-14.6592
-13.8818
-13.0814
-12.2734
-11.4737
-10.6982
-9.96129
-9.27335
-8.63863
-8.05511
-7.5163
-7.01364
-6.53847
-6.08323
-5.64189
-5.20998
-4.78431
-4.36273
-3.94377
-3.5265
-3.1103
-2.69478
-2.2797
-1.86488
-1.45023
-1.03569
-0.621251
-0.20694
-31.8021
-25.0455
-22.0545
-20.5661
-19.6793
-19.0335
-18.4774
-17.941
-17.3879
-16.7962
-16.1531
-15.4537
-14.7022
-13.9096
-13.0914
-12.2643
-11.4459
-10.6539
-9.90472
-9.21051
-8.57578
-7.99728
-7.46655
-6.97311
-6.5069
-6.05952
-5.62461
-5.1977
-4.77576
-4.35686
-3.93981
-3.52385
-3.10854
-2.69363
-2.27894
-1.86439
-1.44992
-1.03551
-0.621158
-0.206918
-33.0087
-25.5776
-22.3025
-20.6924
-19.754
-19.089
-18.5291
-17.9964
-17.4493
-16.8621
-16.219
-15.5137
-14.75
-13.9408
-13.1034
-12.256
-11.4176
-10.6076
-9.845
-9.14391
-8.50913
-7.936
-7.4139
-6.93027
-6.47355
-6.03447
-5.60635
-5.18469
-4.76668
-4.35062
-3.93557
-3.521
-3.10665
-2.69237
-2.27812
-1.86386
-1.44959
-1.03531
-0.621061
-0.206901
-33.9367
-25.9982
-22.5075
-20.8035
-19.8245
-19.1439
-18.581
-18.0514
-17.5093
-16.9258
-16.2824
-15.5711
-14.7958
-13.9709
-13.1157
-12.2494
-11.3922
-10.5654
-9.79003
-9.08232
-8.44738
-7.87923
-7.36516
-6.89065
-6.44272
-6.01131
-5.58944
-5.17263
-4.75824
-4.3448
-3.9316
-3.51832
-3.10485
-2.69117
-2.27732
-1.86334
-1.44926
-1.03512
-0.620966
-0.206885
-34.5664
-26.2889
-22.6535
-20.8861
-19.8793
-19.188
-18.6233
-18.096
-17.5577
-16.977
-16.3332
-15.6169
-14.8324
-13.9953
-13.1261
-12.2451
-11.3734
-10.5333
-9.74781
-9.03471
-8.39947
-7.83512
-7.32726
-6.85983
-6.41871
-5.99326
-5.57624
-5.16319
-4.75159
-4.34019
-3.92844
-3.51616
-3.10338
-2.69018
-2.27666
-1.8629
-1.44898
-1.03495
-0.62088
-0.20687
-34.8855
-26.4383
-22.7303
-20.931
-19.9103
-19.2138
-18.6483
-18.1226
-17.5866
-17.0074
-16.3632
-15.6441
-14.8542
-14.01
-13.133
-12.2438
-11.3638
-10.516
-9.72456
-9.00817
-8.37258
-7.81024
-7.30582
-6.84233
-6.40504
-5.98293
-5.56863
-5.15769
-4.74768
-4.33744
-3.92651
-3.51483
-3.10245
-2.68954
-2.27621
-1.86259
-1.44877
-1.03482
-0.620812
-0.206854
-22.8565
-22.1367
-21.2659
-20.4656
-19.7602
-19.1223
-18.5194
-17.9252
-17.3201
-16.6909
-16.0293
-15.3325
-14.6028
-13.8467
-13.074
-12.2968
-11.5277
-10.7793
-10.0621
-9.3839
-8.74857
-8.15604
-7.60302
-7.08415
-6.59324
-6.12418
-5.67156
-5.23091
-4.79877
-4.37254
-3.95033
-3.53084
-3.11314
-2.69662
-2.28087
-1.86563
-1.4507
-1.03598
-0.621433
-0.207039
-23.2016
-22.2232
-21.2411
-20.413
-19.7089
-19.0787
-18.4833
-17.8946
-17.2937
-16.6677
-16.0093
-15.3159
-14.5901
-13.8384
-13.0703
-12.2978
-11.5331
-10.7884
-10.0741
-9.39763
-8.76282
-8.16977
-7.61543
-7.0948
-6.60198
-6.13108
-5.67683
-5.23484
-4.80163
-4.37458
-3.95177
-3.53183
-3.11382
-2.69708
-2.28118
-1.86583
-1.45084
-1.03608
-0.621503
-0.207059
-23.9034
-22.5603
-21.3588
-20.4336
-19.6947
-19.0565
-18.4632
-17.8798
-17.2842
-16.6628
-16.0076
-15.316
-14.5907
-13.8384
-13.0692
-12.295
-11.5287
-10.7825
-10.0672
-9.39041
-8.75602
-8.1639
-7.61075
-7.09132
-6.59954
-6.12947
-5.67583
-5.23425
-4.80131
-4.37443
-3.95171
-3.53182
-3.11383
-2.69711
-2.28121
-1.86586
-1.45086
-1.0361
-0.621511
-0.207044
-24.7408
-23.0255
-21.5727
-20.519
-19.7232
-19.0642
-18.4665
-17.8856
-17.2947
-16.6774
-16.0245
-15.3325
-14.6042
-13.8468
-13.071
-12.2897
-11.5163
-10.764
-10.0442
-9.36525
-8.73109
-8.14109
-7.59121
-7.07547
-6.58725
-6.1203
-5.6692
-5.22959
-4.7981
-4.37226
-3.95026
-3.53087
-3.11322
-2.69671
-2.28096
-1.8657
-1.45077
-1.03605
-0.621481
-0.207025
-25.5851
-23.5306
-21.8349
-20.6473
-19.7864
-19.0994
-18.4928
-17.912
-17.3245
-16.7106
-16.0586
-15.3642
-14.6296
-13.863
-13.0762
-12.283
-11.498
-10.7354
-10.0081
-9.32537
-8.69126
-8.10438
-7.55951
-7.0495
-6.5669
-6.10492
-5.65793
-5.22153
-4.79246
-4.36838
-3.94763
-3.52911
-3.11205
-2.69595
-2.28047
-1.86539
-1.45057
-1.03593
-0.621422
-0.20701
-26.3619
-24.0166
-22.1058
-20.7945
-19.8698
-19.1536
-18.5362
-17.9541
-17.3693
-16.758
-16.1061
-15.4074
-14.6641
-13.8854
-13.0843
-12.2759
-11.4759
-10.7
-9.96294
-9.27527
-8.64113
-8.05812
-7.5195
-7.01667
-6.54109
-6.08533
-5.64349
-5.21115
-4.78515
-4.36331
-3.94417
-3.52678
-3.11049
-2.69491
-2.27979
-1.86495
-1.4503
-1.03577
-0.621345
-0.207
-27.0259
-24.4441
-22.3552
-20.9388
-19.9584
-19.2155
-18.588
-18.0044
-17.4218
-16.8127
-16.1602
-15.4565
-14.7032
-13.9109
-13.0942
-12.2692
-11.4528
-10.6624
-9.91442
-9.22121
-8.587
-8.00821
-7.47636
-6.98127
-6.51323
-6.06416
-5.62785
-5.19986
-4.77716
-4.35775
-3.94035
-3.52418
-3.10874
-2.69375
-2.27902
-1.86445
-1.44998
-1.03559
-0.621257
-0.206994
-27.5472
-24.7861
-22.5609
-21.063
-20.0386
-19.2744
-18.6386
-18.0538
-17.4732
-16.866
-16.2127
-15.5039
-14.741
-13.9358
-13.1044
-12.2638
-11.432
-10.6278
-9.86935
-9.17079
-8.53646
-7.96161
-7.43611
-6.94825
-6.48724
-6.04438
-5.61321
-5.18927
-4.76964
-4.35249
-3.93672
-3.5217
-3.10706
-2.69261
-2.27826
-1.86395
-1.44966
-1.0354
-0.621167
-0.206988
-27.9059
-25.0245
-22.7073
-21.154
-20.0994
-19.3205
-18.6791
-18.0938
-17.5147
-16.9089
-16.2549
-15.5419
-14.7714
-13.956
-13.113
-12.2603
-11.4165
-10.6014
-9.83463
-9.13168
-8.49711
-7.92527
-7.40468
-6.92244
-6.46691
-6.02888
-5.6017
-5.18091
-4.76367
-4.34829
-3.9338
-3.51968
-3.10567
-2.69166
-2.27762
-1.86352
-1.44939
-1.03523
-0.621084
-0.20698
-28.0896
-25.1477
-22.7843
-21.2031
-20.1333
-19.347
-18.703
-18.1176
-17.5395
-16.9345
-16.28
-15.5646
-14.7896
-13.9683
-13.1189
-12.2593
-11.4087
-10.5872
-9.81554
-9.10988
-8.47499
-7.90473
-7.38685
-6.90774
-6.45527
-6.01995
-5.59503
-5.17602
-4.76013
-4.34576
-3.93201
-3.51842
-3.10478
-2.69104
-2.27718
-1.86322
-1.44918
-1.0351
-0.621017
-0.206967
-21.8692
-21.5493
-20.9855
-20.3546
-19.7303
-19.128
-18.5396
-17.9508
-17.3473
-16.7175
-16.0539
-15.3536
-14.6189
-13.8569
-13.0778
-12.2939
-11.5187
-10.765
-10.044
-9.36397
-8.72871
-8.13781
-7.58738
-7.07148
-6.58344
-6.11689
-5.66632
-5.22724
-4.79626
-4.37085
-3.94921
-3.5301
-3.11266
-2.69631
-2.28068
-1.8655
-1.45062
-1.03593
-0.621387
-0.206998
-21.9174
-21.5462
-20.9409
-20.2965
-19.6729
-19.0755
-18.4919
-17.9068
-17.3062
-16.6794
-16.0195
-15.3244
-14.5965
-13.8423
-13.0719
-12.2969
-11.53
-10.7835
-10.068
-9.39106
-8.75654
-8.16431
-7.61108
-7.09156
-6.59972
-6.1296
-5.67592
-5.23432
-4.80136
-4.37445
-3.95173
-3.53183
-3.11384
-2.69711
-2.28121
-1.86586
-1.45086
-1.0361
-0.62151
-0.207042
-22.1651
-21.7085
-21.0123
-20.3127
-19.6629
-19.0557
-18.4704
-17.887
-17.2893
-16.6657
-16.0089
-15.3164
-14.5906
-13.8383
-13.0694
-12.2958
-11.5301
-10.7845
-10.0698
-9.3937
-8.75995
-8.1683
-7.61532
-7.09573
-6.60355
-6.13292
-5.67866
-5.2365
-4.80304
-4.37571
-3.95265
-3.5325
-3.11431
-2.69745
-2.28145
-1.86603
-1.45098
-1.03618
-0.62156
-0.207039
-22.5353
-21.9742
-21.1641
-20.3874
-19.6949
-19.0677
-18.4753
-17.8914
-17.2962
-16.6755
-16.0206
-15.3282
-14.6003
-13.8443
-13.0708
-12.292
-11.5211
-10.7708
-10.0528
-9.37532
-8.74222
-8.15267
-7.6025
-7.0858
-6.59621
-6.1277
-5.67507
-5.23409
-4.80146
-4.37471
-3.95202
-3.53211
-3.11408
-2.69731
-2.28137
-1.86599
-1.45097
-1.03618
-0.621563
-0.207032
-22.9549
-22.2883
-21.361
-20.5005
-19.7586
-19.1061
-18.5034
-17.9175
-17.3241
-16.7061
-16.0523
-15.3576
-14.6239
-13.8595
-13.076
-12.2866
-11.505
-10.7453
-10.0202
-9.33954
-8.70708
-8.12096
-7.57572
-7.06434
-6.57971
-6.11543
-5.6662
-5.22783
-4.79713
-4.37175
-3.95003
-3.53079
-3.11322
-2.69675
-2.28101
-1.86576
-1.45083
-1.03611
-0.621531
-0.207031
-23.3703
-22.6072
-21.5715
-20.6312
-19.8403
-19.1618
-18.5479
-17.9595
-17.368
-16.7527
-16.0993
-15.4008
-14.6583
-13.8817
-13.0845
-12.2806
-11.4844
-10.7113
-9.97635
-9.29112
-8.65943
-8.0779
-7.53923
-7.03492
-6.5569
-6.09831
-5.65368
-5.21887
-4.79084
-4.36741
-3.94707
-3.52879
-3.11188
-2.69586
-2.28044
-1.86539
-1.4506
-1.03598
-0.621475
-0.207037
-23.7432
-22.8981
-21.77
-20.7605
-19.9262
-19.2241
-18.6
-18.0095
-17.4202
-16.8077
-16.1547
-15.4515
-14.6985
-13.9078
-13.095
-12.2747
-11.4621
-10.6738
-9.92712
-9.23663
-8.60594
-8.02971
-7.49847
-7.00205
-6.53138
-6.07908
-5.63956
-5.20871
-4.78366
-4.3624
-3.94363
-3.52645
-3.1103
-2.69481
-2.27974
-1.86494
-1.45032
-1.03582
-0.621403
-0.207046
-24.0461
-23.1368
-21.9365
-20.8725
-20.0036
-19.2826
-18.6504
-18.0587
-17.4716
-16.8619
-16.2093
-15.5013
-14.7378
-13.9334
-13.1058
-12.2699
-11.4416
-10.6385
-9.88025
-9.18459
-8.55491
-7.98383
-7.45972
-6.97083
-6.50712
-6.06079
-5.62608
-5.19898
-4.77674
-4.35756
-3.94028
-3.52415
-3.10874
-2.69375
-2.27903
-1.86447
-1.45002
-1.03564
-0.621326
-0.207054
-24.2593
-23.3061
-22.0565
-20.955
-20.0622
-19.3282
-18.6905
-18.0983
-17.5133
-16.9057
-16.2531
-15.5412
-14.7694
-13.9541
-13.1149
-12.2669
-11.4263
-10.6115
-9.84404
-9.14399
-8.51486
-7.94772
-7.42919
-6.9462
-6.48796
-6.0463
-5.61538
-5.19122
-4.7712
-4.35365
-3.93754
-3.52226
-3.10743
-2.69285
-2.27842
-1.86406
-1.44976
-1.03549
-0.621252
-0.207056
-24.3703
-23.3948
-22.1201
-20.9997
-20.0948
-19.3543
-18.7141
-18.1219
-17.5381
-16.9319
-16.2792
-15.5649
-14.7882
-13.9667
-13.121
-12.2663
-11.4188
-10.5973
-9.82421
-9.12134
-8.49226
-7.9272
-7.41176
-6.93208
-6.47692
-6.0379
-5.60912
-5.18663
-4.76788
-4.35127
-3.93585
-3.52106
-3.10658
-2.69225
-2.27799
-1.86377
-1.44956
-1.03537
-0.621191
-0.20705
-21.1353
-20.9801
-20.6225
-20.1508
-19.6293
-19.0884
-18.5358
-17.9678
-17.3761
-16.7522
-16.0896
-15.3861
-14.6447
-13.8733
-13.0833
-12.2882
-11.502
-10.7389
-10.0111
-9.32763
-8.69243
-8.10442
-7.55865
-7.0481
-6.56528
-6.10332
-5.65649
-5.22033
-4.79149
-4.36762
-3.94706
-3.52869
-3.11174
-2.69572
-2.2803
-1.86526
-1.45047
-1.03583
-0.621325
-0.206962
-21.0896
-20.9384
-20.5644
-20.0847
-19.5631
-19.025
-18.4755
-17.9099
-17.3205
-16.6996
-16.0416
-15.3451
-14.6131
-13.853
-13.0754
-12.2929
-11.5188
-10.766
-10.0459
-9.36684
-8.7325
-8.14232
-7.59225
-7.07632
-6.58794
-6.12084
-5.66962
-5.22991
-4.79834
-4.37244
-3.9504
-3.53097
-3.11329
-2.69677
-2.281
-1.86573
-1.45079
-1.03606
-0.621486
-0.207024
-21.14
-20.9922
-20.5885
-20.0822
-19.5447
-18.9994
-18.4478
-17.8831
-17.2962
-16.6784
-16.0241
-15.3312
-14.6026
-13.846
-13.0721
-12.2931
-11.522
-10.7717
-10.0537
-9.37621
-8.74308
-8.15346
-7.6032
-7.0864
-6.59671
-6.1281
-5.6754
-5.23435
-4.80166
-4.37487
-3.95214
-3.53221
-3.11415
-2.69736
-2.28141
-1.86602
-1.45099
-1.0362
-0.62157
-0.207033
-21.2836
-21.122
-20.6754
-20.1301
-19.5666
-19.0072
-18.4501
-17.8852
-17.3009
-16.6867
-16.0351
-15.3428
-14.6123
-13.8521
-13.0739
-12.2902
-11.5141
-10.7591
-10.0376
-9.35915
-8.72743
-8.14068
-7.59371
-7.07991
-6.59257
-6.12566
-5.67407
-5.23372
-4.80143
-4.37484
-3.95221
-3.53231
-3.11426
-2.69746
-2.2815
-1.86609
-1.45105
-1.03625
-0.621603
-0.207039
-21.4867
-21.2995
-20.8032
-20.2129
-19.6184
-19.0415
-18.4772
-17.9119
-17.331
-16.7211
-16.0719
-15.3777
-14.6403
-13.8701
-13.0809
-12.2855
-11.4974
-10.7309
-10.0008
-9.31906
-8.68922
-8.10763
-7.56708
-7.05955
-6.57763
-6.11503
-5.66669
-5.2287
-4.79807
-4.37263
-3.95077
-3.53138
-3.11367
-2.69709
-2.28127
-1.86596
-1.45098
-1.03622
-0.621598
-0.207052
-21.7137
-21.4957
-20.9491
-20.314
-19.688
-19.0932
-18.5217
-17.9566
-17.3803
-16.7762
-16.1299
-15.4321
-14.6832
-13.8976
-13.0922
-12.28
-11.4744
-10.6908
-9.94729
-9.26052
-8.63352
-8.05939
-7.52795
-7.02926
-6.55499
-6.09857
-5.65498
-5.22052
-4.79244
-4.3688
-3.9482
-3.52968
-3.11255
-2.69636
-2.2808
-1.86566
-1.45079
-1.03612
-0.621565
-0.207073
-21.9336
-21.6849
-21.0927
-20.4172
-19.7629
-19.152
-18.5744
-18.0106
-17.4402
-16.8431
-16.2009
-15.4989
-14.7349
-13.9301
-13.1061
-12.2746
-11.4485
-10.6443
-9.88356
-9.191
-8.56804
-8.0032
-7.48258
-6.99416
-6.52868
-6.07932
-5.64118
-5.21078
-4.78567
-4.36415
-3.94503
-3.52754
-3.11112
-2.69541
-2.28017
-1.86525
-1.45055
-1.03598
-0.621513
-0.207098
-22.1214
-21.8462
-21.2168
-20.5085
-19.8314
-19.2077
-18.6257
-18.064
-17.4997
-16.9101
-16.2724
-15.5662
-14.7864
-13.962
-13.1203
-12.2702
-11.4242
-10.5995
-9.82057
-9.12234
-8.50382
-7.94844
-7.43856
-6.96017
-6.50319
-6.06063
-5.62773
-5.20124
-4.77899
-4.35952
-3.94185
-3.52537
-3.10965
-2.69442
-2.27951
-1.86482
-1.45027
-1.03583
-0.621451
-0.20712
-22.2581
-21.9635
-21.308
-20.5769
-19.8838
-19.2514
-18.6668
-18.1072
-17.548
-16.9641
-16.3292
-15.6191
-14.8268
-13.9876
-13.1319
-12.2674
-11.4062
-10.5655
-9.77254
-9.06897
-8.45322
-7.90499
-7.40352
-6.93308
-6.48284
-6.04568
-5.61692
-5.19353
-4.77356
-4.35572
-3.93922
-3.52355
-3.1084
-2.69356
-2.27893
-1.86443
-1.45003
-1.03568
-0.621388
-0.207133
-22.331
-22.0262
-21.3572
-20.6144
-19.9133
-19.2766
-18.6909
-18.1329
-17.5767
-16.9961
-16.3627
-15.6498
-14.8504
-14.0029
-13.1394
-12.2673
-11.398
-10.5481
-9.7467
-9.0394
-8.42467
-7.88021
-7.38342
-6.91745
-6.47104
-6.03695
-5.61056
-5.18895
-4.77028
-4.35339
-3.93757
-3.52239
-3.10758
-2.69298
-2.27852
-1.86415
-1.44984
-1.03557
-0.621332
-0.207133
-20.6027
-20.5104
-20.2734
-19.9209
-19.4937
-19.02
-18.5133
-17.976
-17.4044
-16.7921
-16.1337
-15.4277
-14.6782
-13.8947
-13.0903
-12.2798
-11.4787
-10.7024
-9.96502
-9.2767
-8.64161
-8.05768
-7.51845
-7.01538
-6.53985
-6.08429
-5.6427
-5.21059
-4.78477
-4.36306
-3.94402
-3.52668
-3.11044
-2.69488
-2.27977
-1.86493
-1.45027
-1.03571
-0.621257
-0.206935
-20.5338
-20.4581
-20.212
-19.8517
-19.4217
-18.9481
-18.4421
-17.9055
-17.335
-16.7253
-16.0722
-15.375
-14.6375
-13.8686
-13.0804
-12.2863
-11.5008
-10.7381
-10.0108
-9.32813
-8.6939
-8.10681
-7.56165
-7.05132
-6.56841
-6.10614
-5.6589
-5.22229
-4.79306
-4.36884
-3.94799
-3.52939
-3.11226
-2.69611
-2.28059
-1.86548
-1.45064
-1.03598
-0.621443
-0.207012
-20.5022
-20.4555
-20.2046
-19.8326
-19.3934
-18.9149
-18.4076
-17.8721
-17.3043
-16.6986
-16.0501
-15.3575
-14.6244
-13.8601
-13.0767
-12.2875
-11.5063
-10.7468
-10.0221
-9.34157
-8.70914
-8.12293
-7.57751
-7.0659
-6.58102
-6.11652
-5.66708
-5.22853
-4.79768
-4.37219
-3.95038
-3.53106
-3.11342
-2.69691
-2.28114
-1.86586
-1.4509
-1.03616
-0.621555
-0.207036
-20.5379
-20.5065
-20.2445
-19.8553
-19.4023
-18.9158
-18.4061
-17.8725
-17.3095
-16.7094
-16.0654
-15.3739
-14.6379
-13.8687
-13.0801
-12.2853
-11.4976
-10.7316
-10.0018
-9.32023
-8.69045
-8.10882
-7.56817
-7.06051
-6.57844
-6.1157
-5.66724
-5.22914
-4.79843
-4.37291
-3.95099
-3.53156
-3.11381
-2.6972
-2.28135
-1.86602
-1.45102
-1.03625
-0.621615
-0.207056
-20.6314
-20.6002
-20.32
-19.9093
-19.4397
-18.9439
-18.4318
-17.9018
-17.3462
-16.7547
-16.1165
-15.4234
-14.677
-13.8933
-13.0905
-12.2809
-11.4773
-10.6948
-9.95178
-9.26621
-8.6408
-8.06795
-7.53699
-7.03799
-6.56284
-6.10523
-5.6604
-5.22476
-4.79567
-4.3712
-3.94996
-3.53094
-3.11344
-2.69699
-2.28124
-1.86596
-1.451
-1.03625
-0.621635
-0.207084
-20.7602
-20.7187
-20.416
-19.9822
-19.4953
-18.9903
-18.477
-17.9527
-17.408
-16.8292
-16.2
-15.5042
-14.7385
-13.9309
-13.1069
-12.2756
-11.4479
-10.6395
-9.87382
-9.18236
-8.56466
-8.00554
-7.48905
-7.00273
-6.5377
-6.08772
-5.64842
-5.21668
-4.79029
-4.36766
-3.94764
-3.52943
-3.11248
-2.69637
-2.28085
-1.86573
-1.45087
-1.03619
-0.621624
-0.207121
-20.8994
-20.8426
-20.5167
-20.0608
-19.5579
-19.045
-18.532
-18.0155
-17.4846
-16.923
-16.3075
-15.6097
-14.8153
-13.975
-13.1273
-12.2706
-11.414
-10.5724
-9.7735
-9.07624
-8.47092
-7.93029
-7.43189
-6.9608
-6.50769
-6.06663
-5.6338
-5.20668
-4.78351
-4.3631
-3.9446
-3.52742
-3.11115
-2.6955
-2.28029
-1.86537
-1.45065
-1.03607
-0.621591
-0.207161
-21.0264
-20.9536
-20.6073
-20.1327
-19.6167
-19.0979
-18.5863
-18.0783
-17.5619
-17.0187
-16.4194
-15.7217
-14.893
-14.0171
-13.1482
-12.2669
-11.382
-10.5066
-9.66785
-8.96656
-8.37613
-7.85534
-7.37545
-6.91957
-6.47818
-6.04583
-5.61932
-5.19669
-4.77668
-4.35846
-3.94147
-3.52532
-3.10974
-2.69457
-2.27967
-1.86497
-1.4504
-1.03594
-0.621543
-0.207196
-21.1228
-21.0373
-20.6757
-20.1877
-19.6626
-19.1399
-18.6301
-18.1291
-17.6242
-17.0946
-16.5051
-15.8034
-14.951
-14.0507
-13.1642
-12.2642
-11.3581
-10.4581
-9.59222
-8.88394
-8.30219
-7.79584
-7.33032
-6.8865
-6.45446
-6.02905
-5.60758
-5.18855
-4.77107
-4.35461
-3.93884
-3.52353
-3.10853
-2.69374
-2.27911
-1.8646
-1.45017
-1.03581
-0.62149
-0.207218
-21.1758
-21.0831
-20.7135
-20.2185
-19.6888
-19.1645
-18.6561
-18.1594
-17.6612
-17.139
-16.5543
-15.8493
-14.9832
-14.07
-13.1741
-12.2651
-11.3488
-10.4348
-9.55305
-8.83912
-8.26084
-7.76198
-7.30439
-6.86738
-6.44066
-6.01924
-5.60065
-5.18368
-4.76767
-4.35224
-3.93718
-3.52237
-3.10772
-2.69317
-2.27872
-1.86433
-1.44999
-1.0357
-0.621439
-0.207223
-20.221
-20.1502
-19.9799
-19.7083
-19.3557
-18.9429
-18.4827
-17.9799
-17.4325
-16.8353
-16.1833
-15.4753
-14.7168
-13.9194
-13.0982
-12.2696
-11.4507
-10.6586
-9.90961
-9.21543
-8.5805
-8.00158
-7.47029
-6.97625
-6.50944
-6.06154
-5.6262
-5.19893
-4.77671
-4.35759
-3.94036
-3.52427
-3.10887
-2.69388
-2.27913
-1.86453
-1.45003
-1.03558
-0.621188
-0.206919
-20.1519
-20.0981
-19.92
-19.6391
-19.2807
-18.8647
-18.4025
-17.898
-17.3501
-16.7547
-16.1084
-15.4109
-14.6671
-13.8876
-13.0862
-12.2779
-11.4784
-10.7032
-9.96674
-9.27943
-8.64535
-8.06214
-7.52312
-7.0198
-6.54371
-6.08748
-5.64522
-5.21253
-4.78623
-4.36416
-3.94484
-3.52729
-3.11089
-2.69522
-2.28003
-1.86513
-1.45043
-1.03586
-0.62139
-0.20701
-20.0889
-20.0691
-19.895
-19.6087
-19.2446
-18.8252
-18.3621
-17.8591
-17.3147
-16.7244
-16.084
-15.392
-14.6529
-13.8784
-13.0827
-12.2801
-11.4852
-10.7133
-9.97925
-9.29457
-8.66307
-8.08145
-7.54248
-7.03777
-6.55932
-6.10031
-5.65532
-5.22019
-4.79189
-4.36824
-3.94772
-3.52931
-3.11228
-2.69617
-2.28068
-1.86558
-1.45073
-1.03607
-0.621523
-0.207048
-20.0751
-20.078
-19.9055
-19.6131
-19.2426
-18.82
-18.3578
-17.8596
-17.3231
-16.742
-16.1089
-15.4186
-14.6741
-13.8915
-13.0884
-12.2781
-11.4742
-10.692
-9.94947
-9.26329
-8.63647
-8.06227
-7.53058
-7.03155
-6.55693
-6.10018
-5.6563
-5.22158
-4.79329
-4.36948
-3.94874
-3.53009
-3.11288
-2.69661
-2.281
-1.86581
-1.4509
-1.03619
-0.621606
-0.207083
-20.1142
-20.1241
-19.947
-19.6457
-19.268
-18.8427
-18.3836
-17.8943
-17.3715
-16.8061
-16.1848
-15.4937
-14.731
-13.9256
-13.1035
-12.2738
-11.4474
-10.6402
-9.87527
-9.18419
-8.56658
-8.00735
-7.49067
-7.00411
-6.53886
-6.08867
-5.64919
-5.2173
-4.79079
-4.36805
-3.94795
-3.52968
-3.11267
-2.69653
-2.28097
-1.86581
-1.45093
-1.03623
-0.621648
-0.207127
-20.1925
-20.1972
-20.0096
-19.6973
-19.3121
-18.8851
-18.4316
-17.9558
-17.4536
-16.9136
-16.3139
-15.6232
-14.8227
-13.9759
-13.127
-12.2686
-11.4082
-10.5593
-9.75037
-9.05391
-8.45511
-7.92137
-7.42816
-6.96035
-6.50901
-6.06872
-5.63605
-5.20877
-4.7853
-4.36456
-3.94574
-3.5283
-3.11181
-2.69599