# vtk DataFile Version 2.0
I need something to put here
ASCII

DATASET STRUCTURED_GRID
DIMENSIONS 14 11 21
POINTS 3234 float
1.400000 1.000000 0.000000
1.500000 1.000000 0.000000
1.600000 1.000000 0.000000
1.700000 1.000000 0.000000
1.800000 1.000000 0.000000
1.900000 1.000000 0.000000
2.000000 1.000000 0.000000
2.100000 1.000000 0.000000
2.200000 1.000000 0.000000
2.300000 1.000000 0.000000
2.400000 1.000000 0.000000
2.500000 1.000000 0.000000
2.600000 1.000000 0.000000
2.700000 1.000000 0.000000
1.400000 1.100000 0.000000
1.500000 1.100000 0.000000
1.600000 1.100000 0.000000
1.700000 1.100000 0.000000
1.800000 1.100000 0.000000
1.900000 1.100000 0.000000
2.000000 1.100000 0.000000
2.100000 1.100000 0.000000
2.200000 1.100000 0.000000
2.300000 1.100000 0.000000
2.400000 1.100000 0.000000
2.500000 1.100000 0.000000
2.600000 1.100000 0.000000
2.700000 1.100000 0.000000
1.400000 1.200000 0.000000
1.500000 1.200000 0.000000
1.600000 1.200000 0.000000
1.700000 1.200000 0.000000
1.800000 1.200000 0.000000
1.900000 1.200000 0.000000
2.000000 1.200000 0.000000
2.100000 1.200000 0.000000
2.200000 1.200000 0.000000
2.300000 1.200000 0.000000
2.400000 1.200000 0.000000
2.500000 1.200000 0.000000
2.600000 1.200000 0.000000
2.700000 1.200000 0.000000
1.400000 1.300000 0.000000
1.500000 1.300000 0.000000
1.600000 1.300000 0.000000
1.700000 1.300000 0.000000
1.800000 1.300000 0.000000
1.900000 1.300000 0.000000
2.000000 1.300000 0.000000
2.100000 1.300000 0.000000
2.200000 1.300000 0.000000
2.300000 1.300000 0.000000
2.400000 1.300000 0.000000
2.500000 1.300000 0.000000
2.600000 1.300000 0.000000
2.700000 1.300000 0.000000
1.400000 1.400000 0.000000
1.500000 1.400000 0.000000
1.600000 1.400000 0.000000
1.700000 1.400000 0.000000
1.800000 1.400000 0.000000
1.900000 1.400000 0.000000
2.000000 1.400000 0.000000
2.100000 1.400000 0.000000
2.200000 1.400000 0.000000
2.300000 1.400000 0.000000
2.400000 1.400000 0.000000
2.500000 1.400000 0.000000
2.600000 1.400000 0.000000
2.700000 1.400000 0.000000
1.400000 1.500000 0.000000
1.500000 1.500000 0.000000
1.600000 1.500000 0.000000
1.700000 1.500000 0.000000
1.800000 1.500000 0.000000
1.900000 1.500000 0.000000
2.000000 1.500000 0.000000
2.100000 1.500000 0.000000
2.200000 1.500000 0.000000
2.300000 1.500000 0.000000
2.400000 1.500000 0.000000
2.500000 1.500000 0.000000
2.600000 1.500000 0.000000
2.700000 1.500000 0.000000
1.400000 1.600000 0.000000
1.500000 1.600000 0.000000
1.600000 1.600000 0.000000
1.700000 1.600000 0.000000
1.800000 1.600000 0.000000
1.900000 1.600000 0.000000
2.000000 1.600000 0.000000
2.100000 1.600000 0.000000
2.200000 1.600000 0.000000
2.300000 1.600000 0.000000
2.400000 1.600000 0.000000
2.500000 1.600000 0.000000
2.600000 1.600000 0.000000
2.700000 1.600000 0.000000
1.400000 1.700000 0.000000
1.500000 1.700000 0.000000
1.600000 1.700000 0.000000
1.700000 1.700000 0.000000
1.800000 1.700000 0.000000
1.900000 1.700000 0.000000
2.000000 1.700000 0.000000
2.100000 1.700000 0.000000
2.200000 1.700000 0.000000
2.300000 1.700000 0.000000
2.400000 1.700000 0.000000
2.500000 1.700000 0.000000
2.600000 1.700000 0.000000
2.700000 1.700000 0.000000
1.400000 1.800000 0.000000
1.500000 1.800000 0.000000
1.600000 1.800000 0.000000
1.700000 1.800000 0.000000
1.800000 1.800000 0.000000
1.900000 1.800000 0.000000
2.000000 1.800000 0.000000
2.100000 1.800000 0.000000
2.200000 1.800000 0.000000
2.300000 1.800000 0.000000
2.400000 1.800000 0.000000
2.500000 1.800000 0.000000
2.600000 1.800000 0.000000
2.700000 1.800000 0.000000
1.400000 1.900000 0.000000
1.500000 1.900000 0.000000
1.600000 1.900000 0.000000
1.700000 1.900000 0.000000
1.800000 1.900000 0.000000
1.900000 1.900000 0.000000
2.000000 1.900000 0.000000
2.100000 1.900000 0.000000
2.200000 1.900000 0.000000
2.300000 1.900000 0.000000
2.400000 1.900000 0.000000
2.500000 1.900000 0.000000
2.600000 1.900000 0.000000
2.700000 1.900000 0.000000
1.400000 2.000000 0.000000
1.500000 2.000000 0.000000
1.600000 2.000000 0.000000
1.700000 2.000000 0.000000
1.800000 2.000000 0.000000
1.900000 2.000000 0.000000
2.000000 2.000000 0.000000
2.100000 2.000000 0.000000
2.200000 2.000000 0.000000
2.300000 2.000000 0.000000
2.400000 2.000000 0.000000
2.500000 2.000000 0.000000
2.600000 2.000000 0.000000
2.700000 2.000000 0.000000
1.400000 1.000000 0.100000
1.500000 1.000000 0.100000
1.600000 1.000000 0.100000
1.700000 1.000000 0.100000
1.800000 1.000000 0.100000
1.900000 1.000000 0.100000
2.000000 1.000000 0.100000
2.100000 1.000000 0.100000
2.200000 1.000000 0.100000
2.300000 1.000000 0.100000
2.400000 1.000000 0.100000
2.500000 1.000000 0.100000
2.600000 1.000000 0.100000
2.700000 1.000000 0.100000
1.400000 1.100000 0.100000
1.500000 1.100000 0.100000
1.600000 1.100000 0.100000
1.700000 1.100000 0.100000
1.800000 1.100000 0.100000
1.900000 1.100000 0.100000
2.000000 1.100000 0.100000
2.100000 1.100000 0.100000
2.200000 1.100000 0.100000
2.300000 1.100000 0.100000
2.400000 1.100000 0.100000
2.500000 1.100000 0.100000
2.600000 1.100000 0.100000
2.700000 1.100000 0.100000
1.400000 1.200000 0.100000
1.500000 1.200000 0.100000
1.600000 1.200000 0.100000
1.700000 1.200000 0.100000
1.800000 1.200000 0.100000
1.900000 1.200000 0.100000
2.000000 1.200000 0.100000
2.100000 1.200000 0.100000
2.200000 1.200000 0.100000
2.300000 1.200000 0.100000
2.400000 1.200000 0.100000
2.500000 1.200000 0.100000
2.600000 1.200000 0.100000
2.700000 1.200000 0.100000
1.400000 1.300000 0.100000
1.500000 1.300000 0.100000
1.600000 1.300000 0.100000
1.700000 1.300000 0.100000
1.800000 1.300000 0.100000
1.900000 1.300000 0.100000
2.000000 1.300000 0.100000
2.100000 1.300000 0.100000
2.200000 1.300000 0.100000
2.300000 1.300000 0.100000
2.400000 1.300000 0.100000
2.500000 1.300000 0.100000
2.600000 1.300000 0.100000
2.700000 1.300000 0.100000
1.400000 1.400000 0.100000
1.500000 1.400000 0.100000
1.600000 1.400000 0.100000
1.700000 1.400000 0.100000
1.800000 1.400000 0.100000
1.900000 1.400000 0.100000
2.000000 1.400000 0.100000
2.100000 1.400000 0.100000
2.200000 1.400000 0.100000
2.300000 1.400000 0.100000
2.400000 1.400000 0.100000
2.500000 1.400000 0.100000
2.600000 1.400000 0.100000
2.700000 1.400000 0.100000
1.400000 1.500000 0.100000
1.500000 1.500000 0.100000
1.600000 1.500000 0.100000
1.700000 1.500000 0.100000
1.800000 1.500000 0.100000
1.900000 1.500000 0.100000
2.000000 1.500000 0.100000
2.100000 1.500000 0.100000
2.200000 1.500000 0.100000
2.300000 1.500000 0.100000
2.400000 1.500000 0.100000
2.500000 1.500000 0.100000
2.600000 1.500000 0.100000
2.700000 1.500000 0.100000
1.400000 1.600000 0.100000
1.500000 1.600000 0.100000
1.600000 1.600000 0.100000
1.700000 1.600000 0.100000
1.800000 1.600000 0.100000
1.900000 1.600000 0.100000
2.000000 1.600000 0.100000
2.100000 1.600000 0.100000
2.200000 1.600000 0.100000
2.300000 1.600000 0.100000
2.400000 1.600000 0.100000
2.500000 1.600000 0.100000
2.600000 1.600000 0.100000
2.700000 1.600000 0.100000
1.400000 1.700000 0.100000
1.500000 1.700000 0.100000
1.600000 1.700000 0.100000
1.700000 1.700000 0.100000
1.800000 1.700000 0.100000
1.900000 1.700000 0.100000
2.000000 1.700000 0.100000
2.100000 1.700000 0.100000
2.200000 1.700000 0.100000
2.300000 1.700000 0.100000
2.400000 1.700000 0.100000
2.500000 1.700000 0.100000
2.600000 1.700000 0.100000
2.700000 1.700000 0.100000
1.400000 1.800000 0.100000
1.500000 1.800000 0.100000
1.600000 1.800000 0.100000
1.700000 1.800000 0.100000
1.800000 1.800000 0.100000
1.900000 1.800000 0.100000
2.000000 1.800000 0.100000
2.100000 1.800000 0.100000
2.200000 1.800000 0.100000
2.300000 1.800000 0.100000
2.400000 1.800000 0.100000
2.500000 1.800000 0.100000
2.600000 1.800000 0.100000
2.700000 1.800000 0.100000
1.400000 1.900000 0.100000
1.500000 1.900000 0.100000
1.600000 1.900000 0.100000
1.700000 1.900000 0.100000
1.800000 1.900000 0.100000
1.900000 1.900000 0.100000
2.000000 1.900000 0.100000
2.100000 1.900000 0.100000
2.200000 1.900000 0.100000
2.300000 1.900000 0.100000
2.400000 1.900000 0.100000
2.500000 1.900000 0.100000
2.600000 1.900000 0.100000
2.700000 1.900000 0.100000
1.400000 2.000000 0.100000
1.500000 2.000000 0.100000
1.600000 2.000000 0.100000
1.700000 2.000000 0.100000
1.800000 2.000000 0.100000
1.900000 2.000000 0.100000
2.000000 2.000000 0.100000
2.100000 2.000000 0.100000
2.200000 2.000000 0.100000
2.300000 2.000000 0.100000
2.400000 2.000000 0.100000
2.500000 2.000000 0.100000
2.600000 2.000000 0.100000
2.700000 2.000000 0.100000
1.400000 1.000000 0.200000
1.500000 1.000000 0.200000
1.600000 1.000000 0.200000
1.700000 1.000000 0.200000
1.800000 1.000000 0.200000
1.900000 1.000000 0.200000
2.000000 1.000000 0.200000
2.100000 1.000000 0.200000
2.200000 1.000000 0.200000
2.300000 1.000000 0.200000
2.400000 1.000000 0.200000
2.500000 1.000000 0.200000
2.600000 1.000000 0.200000
2.700000 1.000000 0.200000
1.400000 1.100000 0.200000
1.500000 1.100000 0.200000
1.600000 1.100000 0.200000
1.700000 1.100000 0.200000
1.800000 1.100000 0.200000
1.900000 1.100000 0.200000
2.000000 1.100000 0.200000
2.100000 1.100000 0.200000
2.200000 1.100000 0.200000
2.300000 1.100000 0.200000
2.400000 1.100000 0.200000
2.500000 1.100000 0.200000
2.600000 1.100000 0.200000
2.700000 1.100000 0.200000
1.400000 1.200000 0.200000
1.500000 1.200000 0.200000
1.600000 1.200000 0.200000
1.700000 1.200000 0.200000
1.800000 1.200000 0.200000
1.900000 1.200000 0.200000
2.000000 1.200000 0.200000
2.100000 1.200000 0.200000
2.200000 1.200000 0.200000
2.300000 1.200000 0.200000
2.400000 1.200000 0.200000
2.500000 1.200000 0.200000
2.600000 1.200000 0.200000
2.700000 1.200000 0.200000
1.400000 1.300000 0.200000
1.500000 1.300000 0.200000
1.600000 1.300000 0.200000
1.700000 1.300000 0.200000
1.800000 1.300000 0.200000
1.900000 1.300000 0.200000
2.000000 1.300000 0.200000
2.100000 1.300000 0.200000
2.200000 1.300000 0.200000
2.300000 1.300000 0.200000
2.400000 1.300000 0.200000
2.500000 1.300000 0.200000
2.600000 1.300000 0.200000
2.700000 1.300000 0.200000
1.400000 1.400000 0.200000
[...]
CELL_DATA 2600
SCALARS pressure float 1
LOOKUP_TABLE default
20.2252
19.0054
17.8249
16.7112
15.6729
14.7094
13.8147
12.979
12.1904
11.4372
10.7089
9.99737
9.2965
20.2308
19.0212
17.8484
16.7391
15.7023
14.738
13.8408
13.0017
12.2093
11.4523
10.7206
10.0062
9.30294
20.2398
19.0491
17.8904
16.7893
15.7554
14.7899
13.8886
13.0433
12.244
11.4801
10.7422
10.0224
9.31484
20.2503
19.0835
17.9431
16.8528
15.8231
14.8564
13.95
13.0971
12.289
11.5164
10.7703
10.0437
9.33047
20.2604
19.1187
17.9979
16.9195
15.8948
14.9274
14.0158
13.1551
12.3378
11.5557
10.8011
10.0669
9.34764
20.2692
19.1501
18.0475
16.9807
15.9611
14.9934
14.0775
13.2096
12.3839
11.5931
10.8304
10.0892
9.36412
20.2765
19.1749
18.0871
17.0301
16.015
15.0474
14.1282
13.2547
12.4221
11.6243
10.8549
10.1079
9.37798
20.2818
19.1919
18.1143
17.0642
16.0526
15.0853
14.1638
13.2865
12.4492
11.6465
10.8724
10.1212
9.38783
20.2848
19.2007
18.1284
17.0821
16.0724
15.1053
14.1827
13.3033
12.4635
11.6581
10.8815
10.1281
9.39289
20.2853
19.2016
18.1297
17.0838
16.0741
15.1068
14.1839
13.3042
12.464
11.6583
10.8815
10.1279
9.39258
20.244
19.0553
17.9031
16.8099
15.7823
14.8207
13.9211
13.0754
12.274
11.5068
10.765
10.0413
9.33009
20.2481
19.0682
17.9224
16.8327
15.8063
14.8442
13.9426
13.0941
12.2895
11.5192
10.7747
10.0486
9.33548
20.2547
19.091
17.9569
16.8738
15.8498
14.8867
13.9817
13.1282
12.318
11.5422
10.7925
10.0621
9.34541
20.2622
19.119
18.0001
16.9257
15.9051
14.9411
14.0318
13.1722
12.3548
11.5719
10.8156
10.0796
9.35833
20.2694
19.1473
18.0446
16.9799
15.9633
14.9986
14.0852
13.2191
12.3943
11.6038
10.8406
10.0985
9.3723
20.2758
19.1723
18.0843
17.0288
16.0162
15.0511
14.1341
13.2623
12.4308
11.6333
10.8637
10.1161
9.38522
20.281
19.1913
18.1148
17.0666
16.0573
15.0921
14.1723
13.2961
12.4592
11.6564
10.8817
10.1296
9.39516
20.2849
19.2031
18.1333
17.0896
16.0822
15.1168
14.1952
13.3162
12.476
11.6697
10.8919
10.1372
9.40055
20.2871
19.2068
18.1384
17.0954
16.088
15.1221
14.1996
13.3194
12.4781
11.671
10.8924
10.1371
9.40013
20.2877
19.2021
18.1288
17.0821
16.0722
15.1049
14.1823
13.303
12.4632
11.6579
10.8813
10.128
9.39279
20.2603
19.0504
17.8994
16.8178
15.8004
14.8468
13.9529
13.1104
12.3092
11.54
10.7946
10.0666
9.35087
20.2648
19.0657
17.9213
16.8424
15.8255
14.8706
13.9741
13.1284
12.3239
11.5515
10.8034
10.0731
9.35561
20.2715
19.0928
17.9602
16.8864
15.8705
14.9135
14.0126
13.1611
12.3506
11.5725
10.8194
10.085
9.36427
20.2779
19.1254
18.008
16.9407
15.9266
14.9674
14.0612
13.2027
12.3847
11.5995
10.8401
10.1004
9.3754
20.2831
19.1566
18.0554
16.9958
15.9841
15.0231
14.1118
13.2462
12.4205
11.6278
10.8618
10.1165
9.3871
20.2872
19.1821
18.0956
17.0436
16.0344
15.0719
14.1563
13.2846
12.4521
11.6529
10.8809
10.1307
9.3973
20.2903
19.1998
18.1241
17.078
16.0708
15.1072
14.1883
13.3121
12.4746
11.6704
10.8942
10.1403
9.40404
20.2924
19.2089
18.1384
17.095
16.0883
15.1236
14.2027
13.3239
12.4836
11.677
10.8986
10.1431
9.40557
20.2937
19.2089
18.137
17.0919
16.0836
15.1175
14.1956
13.3163
12.476
11.6697
10.8919
10.1371
9.40047
20.2947
19.1997
18.1187
17.0666
16.0537
15.0856
14.1638
13.2862
12.4489
11.6461
10.8721
10.121
9.38762
20.2641
18.9609
17.7978
16.7333
15.7278
14.7891
13.9135
13.0884
12.301
11.541
10.801
10.0753
9.3602
20.2721
18.9869
17.8308
16.7671
15.7607
14.8191
13.939
13.109
12.3169
11.553
10.8097
10.0816
9.3646
20.2839
19.0342
17.89
16.8269
15.8191
14.8727
13.9849
13.1461
12.3458
11.5747
10.8257
10.093
9.3726
20.2928
19.0906
17.9603
16.8979
15.8898
14.9384
14.0417
13.1926
12.3821
11.6022
10.8458
10.1075
9.38271
20.2976
19.1398
18.0269
16.9677
15.9596
15.0039
14.099
13.2398
12.4193
11.6304
10.8665
10.1223
9.39299
20.3
19.1759
18.0799
17.026
16.0182
15.0588
14.1472
13.2796
12.4507
11.6541
10.8838
10.1345
9.40132
20.3011
19.1983
18.1147
17.0654
16.0578
15.0956
14.1791
13.3057
12.4707
11.6688
10.8941
10.1413
9.40561
20.3017
19.2079
18.1297
17.0818
16.0733
15.1088
14.1893
13.3127
12.4749
11.6706
10.8942
10.1403
9.40403
20.3021
19.2058
18.1244
17.0729
16.0613
15.0945
14.1737
13.2969
12.4596
11.6565
10.8817
10.1296
9.39507
20.3037
19.1926
18.0982
17.0369
16.0189
15.0495
14.1291
13.255
12.4221
11.6241
10.8547
10.1076
9.37771
20.2244
18.6935
17.5577
16.5516
15.5529
14.6381
13.7998
13.0115
12.2535
11.5144
10.788
10.0707
9.36023
20.2447
18.7465
17.6152
16.6045
15.6032
14.6822
13.8352
13.0383
12.2729
11.5281
10.7975
10.0772
9.36455
20.2779
18.8505
17.7208
16.6971
15.6919
14.7606
13.8985
13.0863
12.3079
11.5529
10.8147
10.0889
9.37235
20.3013
18.9811
17.8418
16.7978
15.7946
14.8543
13.9754
13.1453
12.3513
11.5839
10.8362
10.1035
9.38207
20.3098
19.0828
17.9516
16.8961
15.8917
14.9435
14.0501
13.2037
12.3947
11.615
10.8578
10.1181
9.39164
20.3116
19.1481
18.0344
16.9769
15.9701
15.0151
14.1105
13.2513
12.4302
11.6402
10.8751
10.1294
9.39881
20.3113
19.1844
18.0861
17.0304
16.0213
15.0609
14.1486
13.2806
12.4513
11.6545
10.884
10.1346
9.40137
20.3105
19.1991
18.1077
17.052
16.0402
15.0757
14.1588
13.2862
12.4531
11.6534
10.8812
10.1308
9.39734
20.3102
19.1965
18.101
17.0401
16.0236
15.0558
14.137
13.264
12.4317
11.6338
10.8639
10.1161
9.38516
20.3122
19.1791
18.0666
16.993
15.9687
14.9979
14.08
13.2109
12.3844
11.5933
10.8303
10.089
9.36387
20.0036
17.9694
17.1247
16.3055
15.2401
14.3657
13.6025
12.8811
12.1721
11.4659
10.7605
10.0563
9.35359
20.063
18.0806
17.2272
16.3905
15.3248
14.4367
13.6555
12.9182
12.1972
11.4825
10.7714
10.0633
9.35801
20.1857
18.3344
17.4258
16.538
15.4742
14.5633
13.7503
12.9847
12.2423
11.5125
10.791
10.0759
9.36596
20.2819
18.7106
17.6341
16.6561
15.64
14.7125
13.864
13.0656
12.2977
11.5495
10.8153
10.0915
9.37574
20.3134
18.9571
17.8215
16.7866
15.7837
14.845
13.9697
13.1433
12.352
11.5862
10.8394
10.1068
9.38515
20.3194
19.0903
17.9573
16.9002
15.8947
14.9456
14.0516
13.2047
12.3954
11.6154
10.8581
10.1182
9.39174
20.319
19.1562
18.039
16.9765
15.9659
15.0082
14.1019
13.2417
12.4206
11.6312
10.867
10.1226
9.39315
20.3174
19.1821
18.0739
17.0089
15.9932
15.0292
14.1158
13.2489
12.4221
11.6288
10.8623
10.1168
9.38724
20.3163
19.1811
18.0684
16.9963
15.9743
15.0058
14.0898
13.222
12.396
11.6047
10.8411
10.0987
9.37233
20.3181
19.1587
18.025
16.9375
15.9063
14.9346
14.0202
13.1575
12.3391
11.5563
10.8013
10.0669
9.34745
18.9461
15.9426
16.5531
16.0891
14.645
13.9082
13.3108
12.7037
12.0661
11.4036
10.7247
10.0364
9.34322
19.124
16.1461
16.7241
16.227
14.8021
14.0277
13.3914
12.7555
12.0988
11.4239
10.7373
10.0441
9.34784
19.6492
16.7551
17.0987
16.5153
15.0849
14.2449
13.5369
12.8487
12.1575
11.4606
10.76
10.058
9.35613
20.1453
18.0709
17.3463
16.5384
15.4165
14.5078
13.712
12.9615
12.2292
11.5058
10.7881
10.0751
9.36627
20.2879
18.7158
17.638
16.6586
15.6421
14.7142
13.8653
13.0665
12.2984
11.55
10.8156
10.0917
9.37587
20.3177
18.9944
17.8519
16.8052
15.8001
14.8583
13.9783
13.1474
12.3527
11.5848
10.8368
10.1039
9.3823
20.3221
19.1134
17.9775
16.9104
15.8988
14.9448
14.0462
13.1956
12.3842
11.6035
10.8467
10.108
9.383
20.3212
19.1582
18.0321
16.958
15.9388
14.9758
14.0669
13.2065
12.3871
11.601
10.841
10.1009
9.37566
20.3195
19.161
18.0302
16.9468
15.9195
14.9507
14.0381
13.1762
12.3573
11.5733
10.8165
10.08
9.35848
20.3203
19.1331
17.9774
16.8759
15.8383
14.8662
13.9561
13.1008
12.2911
11.5174
10.7708
10.0438
9.33038
0.0
0.0
0.0
0.0
13.1485
13.1843
12.9446
12.5042
11.9535
11.3392
10.688
10.0158
9.33211
0.0
0.0
0.0
0.0
13.4808
13.3811
13.061
12.5732
11.9944
11.3635
10.7024
10.0243
9.33696
0.0
0.0
0.0
0.0
14.1081
13.7471
13.2742
12.698
12.0681
11.4072
10.7283
10.0394
9.34566
19.6448
16.7586
17.0964
16.5024
15.0833
14.2455
13.5378
12.8494
12.158
11.461
10.7603
10.0581
9.35626
20.1936
18.3428
17.4312
16.5396
15.477
14.5661
13.7525
12.9864
12.2435
11.5133
10.7916
10.0762
9.36622
20.2985
18.8677
17.7339
16.7065
15.699
14.766
13.9025
13.0891
12.3099
11.5543
10.8156
10.0894
9.37272
20.3187
19.0619
17.911
16.8424
15.8304
14.8807
13.9905
13.1501
12.3485
11.5765
10.8268
10.0937
9.37302
20.3215
19.1312
17.9888
16.9071
15.8852
14.9237
14.0196
13.1658
12.3537
11.5745
10.8207
10.0857
9.36467
20.32
19.1395
17.9921
16.8987
15.8671
14.8984
13.9894
13.1333
12.3212
11.5441
10.7936
10.0627
9.34568
20.3191
19.1061
17.9303
16.8166
15.7737
14.8019
13.8962
13.048
12.2468
11.4817
10.743
10.0227
9.31487
0.0
0.0
0.0
0.0
12.1502
12.6641
12.6509
12.3399
11.8609
11.2866
10.6582
9.99912
9.323
0.0
0.0
0.0
0.0
12.5872
12.9149
12.7955
12.4229
11.9086
11.3141
10.674
10.0081
9.32804
0.0
0.0
0.0
0.0
13.4877
13.3835
13.0618
12.5736
11.9948
11.3637
10.7026
10.0244
9.33708
19.1241
16.1537
16.7251
16.2196
14.8036
14.0298
13.393
12.7567
12.0997
11.4246
10.7378
10.0445
9.34809
20.0726
18.0915
17.2349
16.3943
15.3291
14.4405
13.6585
12.9205
12.1988
11.4837
10.7722
10.0638
9.35839
20.2676
18.7663
17.6306
16.6157
15.6118
14.6887
13.84
13.0418
12.2754
11.5298
10.7987
10.0779
9.36504
20.3104
19.0178
17.8546
16.7847
15.7736
14.8284
13.9456
13.1136
12.3201
11.5552
10.8111
10.0825
9.36515
20.3194
19.1081
17.9531
16.8657
15.8421
14.8823
13.9822
13.1339
12.3275
11.5539
10.8049
10.074
9.35613
20.3189
19.1213
17.9612
16.8604
15.8257
14.8574
13.9515
13.1
12.2933
11.5216
10.776
10.0494
9.33587
20.3164
19.0834
17.8924
16.7695
15.7228
14.7516
13.8496
13.0073
12.2127
11.4543
10.7217
10.0066
9.30308
0.0
0.0
0.0
0.0
11.6883
12.3879
12.4911
12.249
11.8094
11.2574
10.6417
9.98988
9.31796
0.0
0.0
0.0
0.0
12.1738
12.6663
12.6506
12.3397
11.8609
11.2867
10.6583
9.99924
9.3231
0.0
0.0
0.0
0.0
13.1701
13.1881
12.9452
12.5045
11.9539
11.3396
10.6883
10.0161
9.33233
18.9499
15.96
16.5664
16.0966
14.6499
13.9106
13.3124
12.705
12.0672
11.4044
10.7254
10.0369
9.34358
20.0141
17.9823
17.1346
16.3117
15.2451
14.3697
13.6057
12.8836
12.1739
11.4673
10.7615
10.057
9.35408
20.2488
18.7147
17.5743
16.5638
15.5621
14.6451
13.8051
13.0154
12.2563
11.5164
10.7893
10.0716
9.36083
20.3045
18.9936
17.8231
16.7521
15.7416
14.7992
13.9207
13.0935
12.3045
11.5434
10.8026
10.0764
9.36086
20.3176
19.095
17.9331
16.8426
15.8182
14.8594
13.9617
13.1164
12.3133
11.5427
10.7963
10.0676
9.35151
20.3179
19.1111
17.9442
16.8393
15.8029
14.835
13.9307
13.0818
12.2781
11.5094
10.7666
10.0422
9.33059
20.3145
19.0706
17.8713
16.7435
15.6949
14.724
13.8242
12.9851
12.1942
11.4394
10.7102
9.99799
9.29674
0.0
0.0
0.0
0.0
11.6915
12.3895
12.4919
12.2495
11.8097
11.2576
10.6418
9.98999
9.31804
0.0
0.0
0.0
0.0
12.1751
12.6672
12.6512
12.34
11.8611
11.2869
10.6584
9.99934
9.32318
0.0
0.0
0.0
0.0
13.1703
13.1885
12.9456
12.5048
11.9541
11.3397
10.6885
10.0162
9.33241
18.9509
15.9613
16.5673
16.0974
14.6503
13.9109
13.3126
12.7052
12.0673
11.4046
10.7255
10.037
9.34365
20.0149
17.9831
17.1353
16.3123
15.2455
14.37
13.606
12.8838
12.1741
11.4674
10.7616
10.0571
9.35415
20.2494
18.7154
17.5749
16.5643
15.5624
14.6454
13.8053
13.0156
12.2564
11.5165
10.7894
10.0717
9.3609
20.3051
18.9942
17.8236
16.7525
15.7419
14.7995
13.9209
13.0937
12.3047
11.5436
10.8027
10.0765
9.36093
20.3181
19.0955
17.9336
16.843
15.8186
14.8597
13.9619
13.1166
12.3134
11.5428
10.7964
10.0677
9.35158
20.3184
19.1117
17.9446
16.8397
15.8033
14.8353
13.931
13.0821
12.2783
11.5095
10.7667
10.0423
9.33066
20.3151
19.0712
17.8718
16.7439
15.6953
14.7244
13.8245
12.9853
12.1944
11.4396
10.7103
9.99809
9.29682
0.0
0.0
0.0
0.0
12.1579
12.668
12.653
12.3412
11.8617
11.2872
10.6586
9.99944
9.32324
0.0
0.0
0.0
0.0
12.5908
12.9171
12.797
12.4239
11.9093
11.3146
10.6744
10.0085
9.32827
0.0
0.0
0.0
0.0
13.4882
13.3845
13.0628
12.5744
11.9954
11.3642
10.7029
10.0247
9.3373
19.1272
16.1574
16.7277
16.2215
14.8046
14.0307
13.3938
12.7574
12.1002
11.4251
10.7382
10.0447
9.34831
20.0749
18.0939
17.2369
16.3959
15.3302
14.4413
13.6592
12.9211
12.1993
11.4841
10.7726
10.0641
9.35861
20.2696
18.7682
17.6322
16.6171
15.6128
14.6896
13.8408
13.0423
12.2759
11.5303
10.799
10.0782
9.36525
20.3121
19.0194
17.856
16.7859
15.7746
14.8293
13.9463
13.1142
12.3206
11.5556
10.8115
10.0828
9.36536
20.3209
19.1095
17.9544
16.8669
15.8431
14.8831
13.9829
13.1345
12.3281
11.5543
10.8052
10.0743
9.35635
20.3205
19.1228
17.9626
16.8616
15.8267
14.8583
13.9522
13.1006
12.2938
11.522
10.7764
10.0496
9.33609
20.3182
19.085
17.8939
16.7708
15.724
14.7525
13.8504
13.0079
12.2133
11.4547
10.722
10.0069
9.3033
0.0
0.0
0.0
0.0
13.1572
13.1888
12.9472
12.5059
11.9547
11.34
10.6887
10.0163
9.3325
0.0
0.0
0.0
0.0
13.485
13.3839
13.0629
12.5746
11.9955
11.3643
10.703
10.0247
9.33733
0.0
0.0
0.0
0.0
14.1085
13.7485
13.2756
12.6991
12.0691
11.408
10.7289
10.0399
9.34602
19.6506
16.7647
17.1005
16.5047
15.0847
14.2468
13.5389
12.8505
12.1589
11.4617
10.7608
10.0586
9.35661
20.1975
18.3466
17.4343
16.5418
15.4786
14.5674
13.7537
12.9874
12.2443
11.514
10.7921
10.0767
9.36656
20.3016
18.8706
17.7364
16.7085
15.7007
14.7673
13.9036
13.0901
12.3107
11.555
10.8161
10.0899
9.37306
20.3214
19.0644
17.9132
16.8443
15.832
14.8821
13.9917
13.151
12.3493
11.5772
10.8273
10.0942
9.37336
20.324
19.1336
17.991
16.909
15.8868
14.9251
14.0208
13.1668
12.3545
11.5752
10.8212
10.0862
9.36501
20.3225
19.1419
17.9943
16.9007
15.8688
14.8999
13.9906
13.1343
12.322
11.5448
10.7942
10.0631
9.34603
20.3219
19.1087
17.9328
16.8187
15.7755
14.8034
13.8975
13.0491
12.2477
11.4824
10.7435
10.0232
9.31523
18.9602
15.9562
16.5587
16.0875
14.6479
13.9113
13.3132
12.7056
12.0675
11.4047
10.7256
10.0371
9.34373
19.1409
16.1628
16.7302
16.2219
14.803
14.0297
13.3933
12.7571
12.1001
11.425
10.7381
10.0447
9.34833
19.6666
16.7736
17.1057
16.5076
15.0844
14.2462
13.5384
12.8501
12.1587
11.4616
10.7608
10.0586
9.3566
20.1542
18.0793
17.3512
16.5393
15.4177
14.5093
13.7135
12.9628
12.2303
11.5067
10.7888
10.0756
9.36673
20.2935
18.721
17.6418
16.6611
15.644
14.7159
13.8668
13.0678
12.2994
11.5509
10.8163
10.0922
9.37632
20.3219
18.9982
17.8552
16.8078
15.8022
14.8601
13.9798
13.1487
12.3538
11.5857
10.8375
10.1044
9.38275
20.3256
19.1167
17.9804
16.913
15.9009
14.9466
14.0477
13.1969
12.3852
11.6044
10.8474
10.1086
9.38345
20.3244
19.1613
18.0349
16.9605
15.9409
14.9776
14.0684
13.2078
12.3882
11.6019
10.8417
10.1014
9.37612
20.3228
19.1641
18.033
16.9493
15.9217
14.9526
14.0397
13.1775
12.3584
11.5742
10.8172
10.0806
9.35895
20.3239
19.1365
17.9805
16.8787
15.8407
14.8683
13.9578
13.1022
12.2923
11.5184
10.7716
10.0444
9.33087
20.0144
17.9788
17.1305
16.3079
15.2428
14.3684
13.6049
12.8831
12.1736
11.4671
10.7615
10.057
9.35419
20.0744
18.0907
17.233
16.392
15.3268
14.4389
13.6576
12.92
12.1986
11.4837
10.7723
10.064
9.35859
20.1967
18.3444
17.4316
16.5391
15.4758
14.5652
13.7521
12.9864
12.2436
11.5136
10.7919
10.0766
9.36652
20.2898
18.7177
17.639
16.6587
15.6421
14.7145
13.8658
13.0672
12.299
11.5506
10.8162
10.0922
9.37629
20.3193
18.9624
17.8257
16.7896
15.7862
14.8471
13.9715
13.1448
12.3533
11.5873
10.8402
10.1075
9.38569
20.324
19.0947
17.961
16.9033
15.8972
14.9478
14.0535
13.2063
12.3967
11.6165
10.859
10.1189
9.39228
20.323
19.16
18.0424
16.9795
15.9684
15.0104
14.1038
13.2433
12.4219
11.6322
10.8679
10.1232
9.39369
20.3212
19.1857
18.0772
17.0119
15.9958
15.0314
14.1177
13.2504
12.4234
11.6299
10.8632
10.1175
9.38778
20.3201
19.1848
18.0718
16.9993
15.977
15.0081
14.0917
13.2236
12.3974
11.6058
10.842
10.0994
9.37289
20.3222
19.1627
18.0287
16.9408
15.9092
14.937
14.0222
13.1592
12.3405
11.5575
10.8022
10.0676
9.34803
20.2327
18.7009
17.5633
16.5555
15.5561
14.641
13.8023
13.0136
12.2552
11.5158
10.7891
10.0715
9.36088
20.2532
18.754
17.6208
16.6082
15.6062
14.6849
13.8375
13.0402
12.2746
11.5295
10.7986
10.078
9.36518
20.286
18.8577
17.7261
16.7005
15.6947
14.763
13.9007
13.0881
12.3095
11.5542
10.8157
10.0897
9.37297
20.3081
18.9873
17.8467
16.8014
15.7975
14.8567
13.9776
13.1471
12.3528
11.5851
10.8372
10.1043
9.38267
20.3155
19.088
17.956
16.8996
15.8946
14.9459
14.0522
13.2055
12.3962
11.6162
10.8588
10.1188
9.39224
20.3164
19.1526
18.0384
16.9803
15.973
15.0175
14.1126
13.253
12.4316
11.6414
10.8761
10.1302
9.39941
20.3157
19.1886
18.0899
17.0337
16.0242
15.0634
14.1507
13.2823
12.4527
11.6556
10.885
10.1353
9.40198
20.3146
19.2031
18.1114
17.0553
16.043
15.0782
14.1609
13.288
12.4545
11.6546
10.8822
10.1316
9.39795
20.3144
19.2005
18.1047
17.0434
16.0265
15.0584
14.1392
13.2659
12.4332
11.635
10.8649
10.1169
9.38578
20.3167
19.1835
18.0707
16.9966
15.9719
15.0006
14.0823
13.2128
12.386
11.5945
10.8313
10.0898
9.3645
20.2711
18.9674
17.8033
16.7377
15.7314
14.7922
13.9161
13.0906
12.3028
11.5425
10.8021
10.0762
9.36087
20.2792
18.9934
17.8363
16.7714
15.7642
14.8221
13.9415
13.1111
12.3187
11.5544
10.8108
10.0825
9.36526
20.2907
19.0405
17.8952
16.8311
15.8226
14.8755
13.9873
13.1482
12.3475
11.5761
10.8267
10.0939
9.37324
20.299
19.0963
17.9652
16.9019
15.8931
14.9412
14.0441
13.1946
12.3838
11.6035
10.8469
10.1083
9.38334
20.3031
19.145
18.0314
16.9716
15.9629
15.0066
14.1013
13.2417
12.4209
11.6316
10.8676
10.1231
9.39362
20.3049
19.1806
18.0841
17.0297
16.0214
15.0615
14.1494
13.2815
12.4522
11.6554
10.8849
10.1353
9.40195
20.3057
19.2026
18.1187
17.0689
16.0609
15.0982
14.1813
13.3075
12.4723
11.6701
10.8951
10.1421
9.40625
20.306
19.2121
18.1336
17.0853
16.0764
15.1115
14.1916
13.3146
12.4765
11.6719
10.8953
10.1412
9.40467
20.3065
19.21
18.1284
17.0765
16.0644
15.0972
14.1761
13.2988
12.4612
11.6578
10.8828
10.1304
9.39572
20.3084
19.1971
18.1024
17.0406
16.0223
15.0524
14.1315
13.257
12.4237
11.6255
10.8558
10.1085
9.37838
20.2669
19.0566
17.9049
16.8226
15.8044
14.8501
13.9556
13.1126
12.3111
11.5415
10.7958
10.0674
9.35153
20.2714
19.0719
17.9268
16.8471
15.8294
14.8738
13.9768
13.1306
12.3257
11.553
10.8045
10.0739
9.35625
20.2779
19.0988
17.9655
16.8909
15.8743
14.9166
14.0152
13.1632
12.3523
11.5739
10.8205
10.0858
9.3649
20.2839
19.131
18.013
16.945
15.9302
14.9704
14.0637
13.2048
12.3864
11.6008
10.8411
10.1012
9.37602
20.2886
19.1618
18.0601
16.9999
15.9876
15.026
14.1142
13.2482
12.4221
11.6291
10.8628
10.1173
9.38772
20.2922
19.1869
18.1
17.0475
16.0378
15.0748
14.1587
13.2866
12.4537
11.6542
10.882
10.1315
9.39793
20.295
19.2043
18.1283
17.0817
16.074
15.11
14.1906
13.3141
12.4762
11.6718
10.8952
10.1411
9.40467
20.2969
19.2132
18.1424
17.0986
16.0915
15.1264
14.205
13.3258
12.4852
11.6783
10.8996
10.1439
9.40622
20.2982
19.2132
18.141
17.0956
16.0868
15.1204
14.198
13.3183
12.4777
11.671
10.893
10.138
9.40114
20.2994
19.2042
18.1229
17.0704
16.0571
15.0885
14.1662
13.2883
12.4506
11.6475
10.8732
10.1218
9.38829
20.2508
19.0618
17.909
16.8149
15.7865
14.8243
13.924
13.0778
12.2758
11.5082
10.7661
10.0421
9.33069
20.2549
19.0746
17.9282
16.8377
15.8105
14.8476
13.9454
13.0964
12.2913
11.5206
10.7757
10.0494
9.33606
20.2613
19.0972
17.9625
16.8786
15.8539
14.8901
13.9844
13.1304
12.3198
11.5435
10.7935
10.0629
9.34598
20.2684
19.1248
18.0053
16.9303
15.909
14.9443
14.0344
13.1743
12.3565
11.5732
10.8167
10.0804
9.3589
20.275
19.1527
18.0495
16.9842
15.9669
15.0016
14.0877
13.2212
12.396
11.6051
10.8416
10.0993
9.37287
20.2809
19.1772
18.0888
17.0328
16.0196
15.054
14.1365
13.2643
12.4324
11.6346
10.8647
10.1168
9.38579
20.2858
19.1959
18.119
17.0705
16.0606
15.0949
14.1747
13.2981
12.4608
11.6577
10.8827
10.1304
9.39576
20.2894
19.2075
18.1374
17.0933
16.0855
15.1196
14.1976
13.3181
12.4776
11.671
10.893
10.138
9.40117
20.2917
19.2112
18.1425
17.0992
16.0913
15.1249
14.202
13.3214
12.4798
11.6723
10.8935
10.138
9.40077
20.2924
19.2066
18.133
17.0859
16.0755
15.1078
14.1848
13.305
12.4649
11.6592
10.8824
10.1288
9.39344
20.2328
19.0126
17.8314
16.7167
15.6775
14.7131
13.8176
12.9813
12.1923
11.4386
10.7099
9.9981
9.297
20.2383
19.0284
17.8548
16.7445
15.7067
14.7416
13.8437
13.004
12.2111
11.4537
10.7216
10.0069
9.30342
20.2471
19.0559
17.8965
16.7944
15.7597
14.7934
13.8913
13.0455
12.2457
11.4814
10.7431
10.0231
9.31531
20.257
19.0898
17.9488
16.8576
15.8271
14.8597
13.9526
13.0992
12.2907
11.5176
10.7713
10.0443
9.33094
20.2664
19.1244
18.003
16.924
15.8985
14.9304
14.0183
13.1571
12.3393
11.5569
10.802
10.0676
9.34811
20.2746
19.1552
18.0522
16.9848
15.9646
14.9963
14.0798
13.2115
12.3854
11.5943
10.8313
10.0899
9.36461
20.2813
19.1796
18.0914
17.0339
16.0184
15.0502
14.1305
13.2566
12.4236
11.6255
10.8559
10.1086