# vtk DataFile Version 2.0
I need something to put here
ASCII

DATASET STRUCTURED_GRID
DIMENSIONS 14 11 21
POINTS 3234 float
1.400000 0.000000 0.000000
1.500000 0.000000 0.000000
1.600000 0.000000 0.000000
1.700000 0.000000 0.000000
1.800000 0.000000 0.000000
1.900000 0.000000 0.000000
2.000000 0.000000 0.000000
2.100000 0.000000 0.000000
2.200000 0.000000 0.000000
2.300000 0.000000 0.000000
2.400000 0.000000 0.000000
2.500000 0.000000 0.000000
2.600000 0.000000 0.000000
2.700000 0.000000 0.000000
1.400000 0.100000 0.000000
1.500000 0.100000 0.000000
1.600000 0.100000 0.000000
1.700000 0.100000 0.000000
1.800000 0.100000 0.000000
1.900000 0.100000 0.000000
2.000000 0.100000 0.000000
2.100000 0.100000 0.000000
2.200000 0.100000 0.000000
2.300000 0.100000 0.000000
2.400000 0.100000 0.000000
2.500000 0.100000 0.000000
2.600000 0.100000 0.000000
2.700000 0.100000 0.000000
1.400000 0.200000 0.000000
1.500000 0.200000 0.000000
1.600000 0.200000 0.000000
1.700000 0.200000 0.000000
1.800000 0.200000 0.000000
1.900000 0.200000 0.000000
2.000000 0.200000 0.000000
2.100000 0.200000 0.000000
2.200000 0.200000 0.000000
2.300000 0.200000 0.000000
2.400000 0.200000 0.000000
2.500000 0.200000 0.000000
2.600000 0.200000 0.000000
2.700000 0.200000 0.000000
1.400000 0.300000 0.000000
1.500000 0.300000 0.000000
1.600000 0.300000 0.000000
1.700000 0.300000 0.000000
1.800000 0.300000 0.000000
1.900000 0.300000 0.000000
2.000000 0.300000 0.000000
2.100000 0.300000 0.000000
2.200000 0.300000 0.000000
2.300000 0.300000 0.000000
2.400000 0.300000 0.000000
2.500000 0.300000 0.000000
2.600000 0.300000 0.000000
2.700000 0.300000 0.000000
1.400000 0.400000 0.000000
1.500000 0.400000 0.000000
1.600000 0.400000 0.000000
1.700000 0.400000 0.000000
1.800000 0.400000 0.000000
1.900000 0.400000 0.000000
2.000000 0.400000 0.000000
2.100000 0.400000 0.000000
2.200000 0.400000 0.000000
2.300000 0.400000 0.000000
2.400000 0.400000 0.000000
2.500000 0.400000 0.000000
2.600000 0.400000 0.000000
2.700000 0.400000 0.000000
1.400000 0.500000 0.000000
1.500000 0.500000 0.000000
1.600000 0.500000 0.000000
1.700000 0.500000 0.000000
1.800000 0.500000 0.000000
1.900000 0.500000 0.000000
2.000000 0.500000 0.000000
2.100000 0.500000 0.000000
2.200000 0.500000 0.000000
2.300000 0.500000 0.000000
2.400000 0.500000 0.000000
2.500000 0.500000 0.000000
2.600000 0.500000 0.000000
2.700000 0.500000 0.000000
1.400000 0.600000 0.000000
1.500000 0.600000 0.000000
1.600000 0.600000 0.000000
1.700000 0.600000 0.000000
1.800000 0.600000 0.000000
1.900000 0.600000 0.000000
2.000000 0.600000 0.000000
2.100000 0.600000 0.000000
2.200000 0.600000 0.000000
2.300000 0.600000 0.000000
2.400000 0.600000 0.000000
2.500000 0.600000 0.000000
2.600000 0.600000 0.000000
2.700000 0.600000 0.000000
1.400000 0.700000 0.000000
1.500000 0.700000 0.000000
1.600000 0.700000 0.000000
1.700000 0.700000 0.000000
1.800000 0.700000 0.000000
1.900000 0.700000 0.000000
2.000000 0.700000 0.000000
2.100000 0.700000 0.000000
2.200000 0.700000 0.000000
2.300000 0.700000 0.000000
2.400000 0.700000 0.000000
2.500000 0.700000 0.000000
2.600000 0.700000 0.000000
2.700000 0.700000 0.000000
1.400000 0.800000 0.000000
1.500000 0.800000 0.000000
1.600000 0.800000 0.000000
1.700000 0.800000 0.000000
1.800000 0.800000 0.000000
1.900000 0.800000 0.000000
2.000000 0.800000 0.000000
2.100000 0.800000 0.000000
2.200000 0.800000 0.000000
2.300000 0.800000 0.000000
2.400000 0.800000 0.000000
2.500000 0.800000 0.000000
2.600000 0.800000 0.000000
2.700000 0.800000 0.000000
1.400000 0.900000 0.000000
1.500000 0.900000 0.000000
1.600000 0.900000 0.000000
1.700000 0.900000 0.000000
1.800000 0.900000 0.000000
1.900000 0.900000 0.000000
2.000000 0.900000 0.000000
2.100000 0.900000 0.000000
2.200000 0.900000 0.000000
2.300000 0.900000 0.000000
2.400000 0.900000 0.000000
2.500000 0.900000 0.000000
2.600000 0.900000 0.000000
2.700000 0.900000 0.000000
1.400000 1.000000 0.000000
1.500000 1.000000 0.000000
1.600000 1.000000 0.000000
1.700000 1.000000 0.000000
1.800000 1.000000 0.000000
1.900000 1.000000 0.000000
2.000000 1.000000 0.000000
2.100000 1.000000 0.000000
2.200000 1.000000 0.000000
2.300000 1.000000 0.000000
2.400000 1.000000 0.000000
2.500000 1.000000 0.000000
2.600000 1.000000 0.000000
2.700000 1.000000 0.000000
1.400000 0.000000 0.100000
1.500000 0.000000 0.100000
1.600000 0.000000 0.100000
1.700000 0.000000 0.100000
1.800000 0.000000 0.100000
1.900000 0.000000 0.100000
2.000000 0.000000 0.100000
2.100000 0.000000 0.100000
2.200000 0.000000 0.100000
2.300000 0.000000 0.100000
2.400000 0.000000 0.100000
2.500000 0.000000 0.100000
2.600000 0.000000 0.100000
2.700000 0.000000 0.100000
1.400000 0.100000 0.100000
1.500000 0.100000 0.100000
1.600000 0.100000 0.100000
1.700000 0.100000 0.100000
1.800000 0.100000 0.100000
1.900000 0.100000 0.100000
2.000000 0.100000 0.100000
2.100000 0.100000 0.100000
2.200000 0.100000 0.100000
2.300000 0.100000 0.100000
2.400000 0.100000 0.100000
2.500000 0.100000 0.100000
2.600000 0.100000 0.100000
2.700000 0.100000 0.100000
1.400000 0.200000 0.100000
1.500000 0.200000 0.100000
1.600000 0.200000 0.100000
1.700000 0.200000 0.100000
1.800000 0.200000 0.100000
1.900000 0.200000 0.100000
2.000000 0.200000 0.100000
2.100000 0.200000 0.100000
2.200000 0.200000 0.100000
2.300000 0.200000 0.100000
2.400000 0.200000 0.100000
2.500000 0.200000 0.100000
2.600000 0.200000 0.100000
2.700000 0.200000 0.100000
1.400000 0.300000 0.100000
1.500000 0.300000 0.100000
1.600000 0.300000 0.100000
1.700000 0.300000 0.100000
1.800000 0.300000 0.100000
1.900000 0.300000 0.100000
2.000000 0.300000 0.100000
2.100000 0.300000 0.100000
2.200000 0.300000 0.100000
2.300000 0.300000 0.100000
2.400000 0.300000 0.100000
2.500000 0.300000 0.100000
2.600000 0.300000 0.100000
2.700000 0.300000 0.100000
1.400000 0.400000 0.100000
1.500000 0.400000 0.100000
1.600000 0.400000 0.100000
1.700000 0.400000 0.100000
1.800000 0.400000 0.100000
1.900000 0.400000 0.100000
2.000000 0.400000 0.100000
2.100000 0.400000 0.100000
2.200000 0.400000 0.100000
2.300000 0.400000 0.100000
2.400000 0.400000 0.100000
2.500000 0.400000 0.100000
2.600000 0.400000 0.100000
2.700000 0.400000 0.100000
1.400000 0.500000 0.100000
1.500000 0.500000 0.100000
1.600000 0.500000 0.100000
1.700000 0.500000 0.100000
1.800000 0.500000 0.100000
1.900000 0.500000 0.100000
2.000000 0.500000 0.100000
2.100000 0.500000 0.100000
2.200000 0.500000 0.100000
2.300000 0.500000 0.100000
2.400000 0.500000 0.100000
2.500000 0.500000 0.100000
2.600000 0.500000 0.100000
2.700000 0.500000 0.100000
1.400000 0.600000 0.100000
1.500000 0.600000 0.100000
1.600000 0.600000 0.100000
1.700000 0.600000 0.100000
1.800000 0.600000 0.100000
1.900000 0.600000 0.100000
2.000000 0.600000 0.100000
2.100000 0.600000 0.100000
2.200000 0.600000 0.100000
2.300000 0.600000 0.100000
2.400000 0.600000 0.100000
2.500000 0.600000 0.100000
2.600000 0.600000 0.100000
2.700000 0.600000 0.100000
1.400000 0.700000 0.100000
1.500000 0.700000 0.100000
1.600000 0.700000 0.100000
1.700000 0.700000 0.100000
1.800000 0.700000 0.100000
1.900000 0.700000 0.100000
2.000000 0.700000 0.100000
2.100000 0.700000 0.100000
2.200000 0.700000 0.100000
2.300000 0.700000 0.100000
2.400000 0.700000 0.100000
2.500000 0.700000 0.100000
2.600000 0.700000 0.100000
2.700000 0.700000 0.100000
1.400000 0.800000 0.100000
1.500000 0.800000 0.100000
1.600000 0.800000 0.100000
1.700000 0.800000 0.100000
1.800000 0.800000 0.100000
1.900000 0.800000 0.100000
2.000000 0.800000 0.100000
2.100000 0.800000 0.100000
2.200000 0.800000 0.100000
2.300000 0.800000 0.100000
2.400000 0.800000 0.100000
2.500000 0.800000 0.100000
2.600000 0.800000 0.100000
2.700000 0.800000 0.100000
1.400000 0.900000 0.100000
1.500000 0.900000 0.100000
1.600000 0.900000 0.100000
1.700000 0.900000 0.100000
1.800000 0.900000 0.100000
1.900000 0.900000 0.100000
2.000000 0.900000 0.100000
2.100000 0.900000 0.100000
2.200000 0.900000 0.100000
2.300000 0.900000 0.100000
2.400000 0.900000 0.100000
2.500000 0.900000 0.100000
2.600000 0.900000 0.100000
2.700000 0.900000 0.100000
1.400000 1.000000 0.100000
1.500000 1.000000 0.100000
1.600000 1.000000 0.100000
1.700000 1.000000 0.100000
1.800000 1.000000 0.100000
1.900000 1.000000 0.100000
2.000000 1.000000 0.100000
2.100000 1.000000 0.100000
2.200000 1.000000 0.100000
2.300000 1.000000 0.100000
2.400000 1.000000 0.100000
2.500000 1.000000 0.100000
2.600000 1.000000 0.100000
2.700000 1.000000 0.100000
1.400000 0.000000 0.200000
1.500000 0.000000 0.200000
1.600000 0.000000 0.200000
1.700000 0.000000 0.200000
1.800000 0.000000 0.200000
1.900000 0.000000 0.200000
2.000000 0.000000 0.200000
2.100000 0.000000 0.200000
2.200000 0.000000 0.200000
2.300000 0.000000 0.200000
2.400000 0.000000 0.200000
2.500000 0.000000 0.200000
2.600000 0.000000 0.200000
2.700000 0.000000 0.200000
1.400000 0.100000 0.200000
1.500000 0.100000 0.200000
1.600000 0.100000 0.200000
1.700000 0.100000 0.200000
1.800000 0.100000 0.200000
1.900000 0.100000 0.200000
2.000000 0.100000 0.200000
2.100000 0.100000 0.200000
2.200000 0.100000 0.200000
2.300000 0.100000 0.200000
2.400000 0.100000 0.200000
2.500000 0.100000 0.200000
2.600000 0.100000 0.200000
2.700000 0.100000 0.200000
1.400000 0.200000 0.200000
1.500000 0.200000 0.200000
1.600000 0.200000 0.200000
1.700000 0.200000 0.200000
1.800000 0.200000 0.200000
1.900000 0.200000 0.200000
2.000000 0.200000 0.200000
2.100000 0.200000 0.200000
2.200000 0.200000 0.200000
2.300000 0.200000 0.200000
2.400000 0.200000 0.200000
2.500000 0.200000 0.200000
2.600000 0.200000 0.200000
2.700000 0.200000 0.200000
1.400000 0.300000 0.200000
1.500000 0.300000 0.200000
1.600000 0.300000 0.200000
1.700000 0.300000 0.200000
1.800000 0.300000 0.200000
1.900000 0.300000 0.200000
2.000000 0.300000 0.200000
2.100000 0.300000 0.200000
2.200000 0.300000 0.200000
2.300000 0.300000 0.200000
2.400000 0.300000 0.200000
2.500000 0.300000 0.200000
2.600000 0.300000 0.200000
2.700000 0.300000 0.200000
1.400000 0.400000 0.200000
[...]
CELL_DATA 2600
SCALARS pressure float 1
LOOKUP_TABLE default
21.1952
20.0084
18.8321
17.6833
16.5755
15.5176
14.514
13.5649
12.6669
11.8146
11.001
10.2193
9.46264
21.1946
20.0073
18.8305
17.6813
16.5733
15.5155
14.5122
13.5635
12.666
11.8141
11.0009
10.2194
9.46296
21.1931
19.999
18.8156
17.6612
16.55
15.4909
14.4882
13.5415
12.6468
11.7982
10.9883
10.2098
9.4558
21.191
19.9831
18.787
17.623
16.5058
15.4445
14.4429
13.4999
12.6106
11.7681
10.9642
10.1912
9.44191
21.1887
19.96
18.7456
17.568
16.4425
15.3782
14.3784
13.4408
12.5594
11.7256
10.9303
10.1651
9.42239
21.1861
19.9311
18.6942
17.5
16.3646
15.2971
14.2998
13.3693
12.4975
11.6745
10.8898
10.1339
9.39917
21.1833
19.8992
18.6378
17.4262
16.2806
15.2099
14.2157
13.2931
12.432
11.6206
10.8472
10.1013
9.37494
21.1802
19.8684
18.5841
17.3564
16.2015
15.1281
14.1372
13.2222
12.3714
11.5711
10.8081
10.0715
9.35285
21.1774
19.8438
18.5417
17.3015
16.1396
15.0644
14.0763
13.1674
12.3247
11.5329
10.7781
10.0488
9.33601
21.176
19.8303
18.5184
17.2714
16.1056
15.0295
14.0429
13.1375
12.2992
11.5122
10.7619
10.0364
9.32687
21.1978
20.009
18.8313
17.6816
16.5733
15.5154
14.5121
13.5633
12.6658
11.8139
11.0008
10.2193
9.46288
21.1952
20.0129
18.8412
17.6965
16.5919
15.5361
14.5335
13.5842
12.6852
11.8312
11.0157
10.2317
9.4729
21.1931
20.0091
18.8358
17.69
16.5851
15.5297
14.5279
13.5798
12.6821
11.8293
11.0147
10.2316
9.4733
21.191
19.9978
18.8162
17.6644
16.5559
15.4995
14.4989
13.5536
12.6597
11.8111
11.0005
10.2209
9.46563
21.1891
19.9798
18.7842
17.6222
16.5077
15.4493
14.4504
13.5095
12.6217
11.7797
10.9757
10.202
9.45161
21.1872
19.9565
18.7429
17.5679
16.4458
15.385
14.3883
13.4531
12.573
11.7396
10.9439
10.1776
9.43344
21.1853
19.9304
18.6968
17.5079
16.3777
15.3145
14.3205
13.3917
12.5203
11.6962
10.9095
10.1512
9.41379
21.1833
19.905
18.6527
17.4508
16.3132
15.248
14.2567
13.3342
12.471
11.6558
10.8775
10.1267
9.3956
21.1814
19.8848
18.6178
17.4059
16.2626
15.196
14.2071
13.2896
12.4328
11.6245
10.8529
10.1079
9.38161
21.1804
19.8737
18.5987
17.3812
16.2348
15.1675
14.1799
13.2652
12.412
11.6075
10.8395
10.0977
9.37399
21.2064
20.0071
18.8203
17.6639
16.5514
15.4916
14.4885
13.5415
12.6467
11.798
10.9881
10.2096
9.45566
21.2018
20.0148
18.8394
17.6923
16.5865
15.5305
14.5283
13.58
12.6822
11.8293
11.0147
10.2316
9.47327
21.1993
20.0142
18.8408
17.6959
16.5921
15.5379
14.537
13.5895
12.6919
11.8388
11.0236
10.2395
9.48011
21.1977
20.0051
18.8258
17.6771
16.5717
15.5176
14.5186
13.5739
12.6796
11.8296
11.0172
10.2354
9.47776
21.1965
19.9879
18.7958
17.6388
16.529
15.4743
14.4777
13.5378
12.6494
11.8056
10.9988
10.2219
9.46817
21.1956
19.9636
18.754
17.5857
16.4697
15.4139
14.4207
13.4872
12.6068
11.7714
10.9723
10.202
9.45376
21.1944
19.9345
18.7053
17.5248
16.402
15.345
14.3558
13.4299
12.5588
11.7327
10.9423
10.1795
9.43727
21.1925
19.9047
18.657
17.4654
16.336
15.2782
14.2933
13.375
12.5129
11.6959
10.9138
10.158
9.42159
21.19
19.8804
18.6181
17.4177
16.2835
15.2252
14.244
13.3318
12.477
11.6672
10.8916
10.1413
9.40937
21.1884
19.867
18.5966
17.3913
16.2543
15.196
14.2168
13.3081
12.4572
11.6514
10.8795
10.1322
9.40268
21.218
20.0005
18.798
17.6298
16.5098
15.4468
14.4441
13.5005
12.6109
11.7681
10.9641
10.1911
9.44178
21.2114
20.0116
18.8253
17.6703
16.5597
15.5018
14.5003
13.5544
12.6602
11.8113
11.0007
10.221
9.46563
21.2084
20.0126
18.8309
17.6805
16.5739
15.5191
14.5196
13.5745
12.6799
11.8299
11.0173
10.2355
9.47779
21.2072
20.0025
18.8151
17.6623
16.5556
15.5024
14.5059
13.5645
12.6737
11.8268
11.0167
10.2364
9.4797
21.2067
19.9803
18.7787
17.6185
16.5084
15.4561
14.4641
13.5295
12.6461
11.8062
11.0021
10.2266
9.47342
21.2063
19.9457
18.7243
17.554
16.4384
15.3866
14.4008
13.4758
12.6031
11.7733
10.9779
10.2093
9.46153
21.2047
19.8997
18.6573
17.4772
16.3545
15.3033
14.3253
13.4123
12.5523
11.7343
10.9489
10.1885
9.44692
21.2001
19.8486
18.588
17.3999
16.2697
15.2194
14.2502
13.3496
12.5026
11.6963
10.9208
10.1681
9.43258
21.1931
19.8067
18.5306
17.3356
16.2001
15.1514
14.1898
13.2995
12.4631
11.6663
10.8985
10.1521
9.42124
21.1885
19.7841
18.4989
17.2994
16.1612
15.1135
14.1562
13.2717
12.4412
11.6497
10.8863
10.1432
9.41497
21.23
19.9875
18.7635
17.5794
16.4496
15.3826
14.381
13.4423
12.5602
11.726
10.9305
10.1651
9.42234
21.2215
20.0022
18.7994
17.6323
16.5143
15.4536
14.4531
13.5112
12.6227
11.7804
10.9761
10.2022
9.4517
21.218
20.0032
18.8065
17.6461
16.5339
15.4776
14.4799
13.5392
12.6503
11.8062
10.9992
10.2221
9.46831
21.2168
19.9877
18.784
17.6222
16.511
15.4579
14.4653
13.5303
12.6467
11.8066
11.0024
10.2267
9.47352
21.2164
19.9518
18.7309
17.5628
16.4488
15.3984
14.4137
13.4895
12.6167
11.7861
10.9892
10.219
9.46953
21.2152
19.8899
18.6478
17.4734
16.3525
15.3045
14.3317
13.4236
12.567
11.7503
10.9645
10.2026
9.45909
21.2094
19.7969
18.5409
17.3658
16.2316
15.1861
14.2296
13.3426
12.5062
11.7064
10.9339
10.1818
9.44531
21.1923
19.681
18.4263
17.257
16.1025
15.0609
14.124
13.2605
12.4453
11.6628
10.9034
10.161
9.43139
21.1673
19.5914
18.3279
17.1588
15.9936
14.9575
14.0378
13.1939
12.3963
11.6279
10.879
10.1443
9.42022
21.1527
19.5468
18.2746
17.1029
15.9325
14.8998
13.9897
13.1569
12.3692
11.6085
10.8656
10.1351
9.41401
21.2399
19.9676
18.7184
17.5158
16.3748
15.3036
14.3039
13.3718
12.4991
11.6754
10.8903
10.1342
9.39926
21.2302
19.9868
18.7637
17.5819
16.4552
15.3912
14.3924
13.4558
12.5748
11.7407
10.9446
10.178
9.43367
21.2262
19.9858
18.7697
17.5966
16.4773
15.419
14.4242
13.4896
12.6084
11.7724
10.973
10.2025
9.45404
21.2244
19.9592
18.734
17.561
16.4434
15.3901
14.4033
13.4776
12.6043
11.7741
10.9784
10.2097
9.46178
21.2225
19.8954
18.6519
17.4765
16.3548
15.3062
14.333
13.4245
12.5676
11.7507
10.9649
10.2029
9.45924
21.2158
19.772
18.5198
17.3514
16.2134
15.169
14.2179
13.337
12.5053
11.7086
10.9376
10.186
9.44942
21.1883
19.5514
18.3447
17.2094
16.0231
14.984
14.0679
13.226
12.4274
11.6558
10.9029
10.1638
9.4357
21.1084
19.2233
18.1581
17.0841
15.7968
14.7729
13.9056
13.1104
12.348
11.6026
10.8679
10.1413
9.42152
21.0078
19.0126
17.9811
16.931
15.6052
14.5989
13.7722
13.0159
12.2837
11.5598
10.8398
10.1232
9.41003
20.9618
18.925
17.8915
16.8444
15.499
14.5028
13.6982
12.9633
12.2479
11.536
10.8242
10.1131
9.40361
21.2465
19.9426
18.667
17.4455
16.2933
15.2182
14.2211
13.2966
12.4343
11.6221
10.848
10.1018
9.3752
21.2364
19.9668
18.7222
17.5253
16.3895
15.3225
14.3259
13.3954
12.5227
11.6978
10.9105
10.1518
9.4142
21.2317
19.9619
18.7249
17.5387
16.4117
15.3518
14.3606
13.4332
12.561
11.7342
10.9434
10.1802
9.43774
21.2279
19.9172
18.6702
17.4866
16.3615
15.3083
14.329
13.4149
12.5542
11.7356
10.9499
10.1891
9.44735
21.2197
19.8049
18.5471
17.3708
16.2356
15.1892
14.232
13.3444
12.5074
11.7074
10.9345
10.1823
9.44564
21.1891
19.5523
18.3458
17.2108
16.0246
14.9854
14.069
13.2269
12.4281
11.6563
10.9032
10.1641
9.43588
21.0611
18.9815
18.0868
17.0844
15.6995
14.6824
13.8445
13.0735
12.3273
11.5918
10.863
10.1397
9.4217
20.6345
17.8328
17.8873
17.0547
15.1901
14.2888
13.5863
12.9087
12.223
11.5263
10.8223
10.1148
9.40687
20.188
17.3535
17.5649
16.7444
14.8101
13.9806
13.3767
12.774
12.138
11.4732
10.7894
10.0947
9.39477
20.0511
17.2194
17.4305
16.6162
14.6077
13.8148
13.2618
12.6993
12.0908
11.4437
10.7711
10.0835
9.38801
21.2497
19.9165
18.6168
17.3783
16.2161
15.1379
14.1438
13.2266
12.3743
11.573
10.8093
10.0723
9.35331
21.2398
19.9456
18.6813
17.4706
16.3268
15.2574
14.2632
13.3387
12.474
11.6578
10.8789
10.1276
9.3962
21.2339
19.9354
18.6793
17.4813
16.3474
15.2863
14.2991
13.3791
12.5157
11.6979
10.9152
10.159
9.42224
21.2255
19.868
18.6026
17.4109
16.2779
15.2256
14.2548
13.3529
12.505
11.6981
10.922
10.169
9.4332
21.2015
19.6885
18.4327
17.2627
16.1074
15.065
14.1273
13.263
12.4472
11.6642
10.9044
10.1617
9.43191
21.1009
19.2186
18.1561
17.0849
15.7989
14.7752
13.9076
13.112
12.3493
11.6036
10.8686
10.1418
9.42189
20.6095
17.8148
17.8767
17.0521
15.1904
14.2899
13.5873
12.9095
12.2236
11.5268
10.8226
10.1151
9.40706
0.0
0.0
0.0
0.0
13.5747
13.5184
13.1915
12.6856
12.0917
11.4481
10.7759
10.0877
9.39144
0.0
0.0
0.0
0.0
12.712
12.9912
12.8809
12.5036
11.9843
11.3844
10.7381
10.0655
9.37868
0.0
0.0
0.0
0.0
12.2762
12.7159
12.7137
12.4035
11.9247
11.349
10.7171
10.0532
9.37154
21.2505
19.8946
18.5764
17.325
16.1555
15.0752
14.0836
13.1724
12.3281
11.5352
10.7797
10.0498
9.33665
21.241
19.9278
18.6483
17.4273
16.2775
15.2064
14.2143
13.2946
12.4364
11.627
10.8546
10.1091
9.38239
21.2335
19.9129
18.6419
17.4349
16.2959
15.2342
14.2504
13.3365
12.4803
11.6696
10.8933
10.1425
9.41021
21.2192
19.8269
18.546
17.3474
16.2092
15.1584
14.1951
13.3035
12.466
11.6684
10.9001
10.1532
9.42204
21.1749
19.598
18.3339
17.1646
15.9992
14.9624
14.0418
13.1971
12.3988
11.6297
10.8804
10.1453
9.42093
20.9957
19.0048
17.9773
16.9311
15.6079
14.6021
13.775
13.0182
12.2855
11.5611
10.8408
10.1239
9.4106
20.1564
17.3309
17.5504
16.7405
14.812
13.983
13.3787
12.7755
12.1392
11.4741
10.7901
10.0952
9.39517
0.0
0.0
0.0
0.0
12.7196
12.994
12.8823
12.5045
11.9849
11.3849
10.7384
10.0658
9.37888
0.0
0.0
0.0
0.0
11.4851
12.3231
12.495
12.2844
11.8592
11.3125
10.6967
10.042
9.36556
0.0
0.0
0.0
0.0
10.9238
11.9745
12.2875
12.1638
11.7895
11.2723
10.6736
10.0287
9.35812
21.2505
19.8823
18.554
17.2956
16.1222
15.0408
14.0507
13.1429
12.303
11.5148
10.7637
10.0376
9.32768
21.2413
19.9178
18.6301
17.4033
16.2503
15.1784
14.1876
13.2707
12.4159
11.6103
10.8414
10.099
9.37493
21.2328
19.9003
18.6211
17.4091
16.2674
15.2055
14.2237
13.3132
12.4609
11.6541
10.8814
10.1336
9.40367
21.2146
19.8045
18.5146
17.3116
16.1708
15.121
14.162
13.2761
12.4445
11.6521
10.8881
10.1445
9.41594
21.1592
19.5528
18.2803
17.1088
15.9383
14.9052
13.9942
13.1605
12.372
11.6107
10.8671
10.1363
9.41489
20.9474
18.9158
17.8866
16.8439
15.5019
14.5065
13.7016
12.9662
12.2501
11.5377
10.8255
10.1141
9.40437
20.0171
17.1952
17.4143
16.6107
14.6103
13.8181
13.2646
12.7016
12.0926
11.4451
10.7721
10.0843
9.3886
0.0
0.0
0.0
0.0
12.2869
12.7204
12.7162
12.4052
11.9259
11.3499
10.7178
10.0537
9.37194
0.0
0.0
0.0
0.0
10.9289
11.9769
12.2888
12.1647
11.7902
11.2727
10.6739
10.029
9.35832
0.0
0.0
0.0
0.0
10.3084
11.5909
12.06
12.0329
11.715
11.2299
10.6496
10.0152
9.35071
21.2508
19.8826
18.5543
17.2959
16.1224
15.041
14.0509
13.1431
12.3031
11.5149
10.7638
10.0377
9.32775
21.2416
19.9181
18.6303
17.4036
16.2506
15.1786
14.1878
13.2708
12.4161
11.6104
10.8415
10.0991
9.37499
21.2331
19.9006
18.6214
17.4094
16.2676
15.2057
14.2239
13.3133
12.4611
11.6542
10.8815
10.1337
9.40373
21.2149
19.8048
18.5149
17.3119
16.1711
15.1213
14.1622
13.2763
12.4447
11.6523
10.8882
10.1446
9.416
21.1594
19.5531
18.2806
17.1091
15.9387
14.9055
13.9945
13.1607
12.3722
11.6108
10.8672
10.1363
9.41496
20.9475
18.916
17.887
16.8444
15.5025
14.5071
13.702
12.9665
12.2504
11.5379
10.8257
10.1142
9.40443
20.0171
17.1954
17.415
16.6115
14.6118
13.8192
13.2653
12.702
12.0928
11.4453
10.7723
10.0844
9.38868
0.0
0.0
0.0
0.0
12.2909
12.7226
12.7173
12.4058
11.9263
11.3501
10.718
10.0538
9.37202
0.0
0.0
0.0
0.0
10.9371
11.9802
12.2903
12.1654
11.7906
11.273
10.6741
10.0291
9.3584
0.0
0.0
0.0
0.0
10.3162
11.5942
12.0616
12.0337
11.7154
11.2302
10.6497
10.0153
9.35079
21.2515
19.8956
18.5773
17.3258
16.1562
15.0758
14.0842
13.1729
12.3285
11.5356
10.78
10.05
9.33685
21.2419
19.9287
18.6491
17.428
16.2782
15.207
14.2148
13.2951
12.4368
11.6273
10.8549
10.1093
9.38257
21.2344
19.9138
18.6427
17.4357
16.2966
15.2348
14.251
13.337
12.4807
11.6699
10.8936
10.1428
9.41039
21.2201
19.8277
18.5468
17.3482
16.21
15.1591
14.1957
13.304
12.4664
11.6688
10.9004
10.1534
9.42222
21.1757
19.5988
18.3348
17.1656
16.0002
14.9634
14.0426
13.1977
12.3993
11.6301
10.8807
10.1455
9.42112
20.9964
19.0055
17.9783
16.9324
15.6096
14.6036
13.7762
13.0191
12.2861
11.5616
10.8412
10.1242
9.4108
20.1568
17.3311
17.5517
16.7426
14.8158
13.9859
13.3805
12.7767
12.14
11.4747
10.7905
10.0955
9.39538
0.0
0.0
0.0
0.0
12.7296
12.9995
12.8852
12.5061
11.9859
11.3855
10.7389
10.0661
9.3791
0.0
0.0
0.0
0.0
11.5043
12.3313
12.4988
12.2864
11.8603
11.3132
10.6972
10.0423
9.36579
0.0
0.0
0.0
0.0
10.9424
11.9827
12.2914
12.1658
11.7907
11.273
10.674
10.029
9.35835
21.2513
19.918
18.6182
17.3796
16.2173
15.139
14.1447
13.2274
12.375
11.5735
10.8098
10.0727
9.35362
21.2413
19.947
18.6826
17.4718
16.3279
15.2584
14.2641
13.3394
12.4747
11.6584
10.8794
10.128
9.39649
21.2353
19.9367
18.6805
17.4825
16.3485
15.2873
14.2999
13.3798
12.5164
11.6984
10.9157
10.1593
9.42253
21.227
19.8694
18.6039
17.4122
16.2791
15.2267
14.2558
13.3537
12.5057
11.6987
10.9225
10.1694
9.43349
21.203
19.6899
18.434
17.2641
16.1089
15.0664
14.1285
13.2639
12.448
11.6648
10.9049
10.1621
9.43221
21.1025
19.2199
18.1574
17.0865
15.8011
14.7772
13.9092
13.1132
12.3502
11.6043
10.8692
10.1422
9.42221
20.6113
17.8155
17.8778
17.0543
15.1949
14.2933
13.5897
12.9112
12.2247
11.5276
10.8232
10.1156
9.4074
0.0
0.0
0.0
0.0
13.5868
13.5248
13.195
12.6877
12.0931
11.4491
10.7765
10.0882
9.39179
0.0
0.0
0.0
0.0
12.733
13.0005
12.8855
12.5061
11.9858
11.3854
10.7388
10.066
9.37904
0.0
0.0
0.0
0.0
12.2968
12.7252
12.7184
12.4061
11.9263
11.35
10.7178
10.0537
9.37191
21.2487
19.9447
18.6689
17.4472
16.2949
15.2196
14.2224
13.2976
12.4352
11.6228
10.8487
10.1023
9.3756
21.2384
19.9687
18.7239
17.5269
16.3909
15.3238
14.327
13.3963
12.5235
11.6985
10.9111
10.1523
9.41458
21.2336
19.9637
18.7266
17.5403
16.4131
15.353
14.3617
13.4342
12.5619
11.7349
10.9439
10.1806
9.43811
21.2299
19.9191
18.6719
17.4882
16.3629
15.3097
14.3302
13.4159
12.555
11.7364
10.9504
10.1896
9.44773
21.222
19.8069
18.5489
17.3724
16.2372
15.1907
14.2333
13.3455
12.5084
11.7081
10.9352
10.1828
9.44604
21.192
19.5547
18.3476
17.2122
16.0265
14.9872
14.0707
13.2283
12.4292
11.6572
10.9039
10.1646
9.43629
21.0657
18.9851
18.0881
17.0841
15.7017
14.685
13.8467
13.0752
12.3286
11.5928
10.8638
10.1403
9.42214
20.6443
17.8415
17.8874
17.0458
15.1927
14.2925
13.5892
12.9108
12.2245
11.5274
10.8231
10.1154
9.40732
20.198
17.3609
17.5642
16.7383
14.8151
13.9856
13.3802
12.7764
12.1397
11.4744
10.7903
10.0954
9.39524
20.0608
17.2261
17.4298
16.6118
14.6131
13.8199
13.2654
12.7018
12.0925
11.4449
10.772
10.0842
9.38849
21.2425
19.97
18.7206
17.5178
16.3766
15.3052
14.3053
13.373
12.5001
11.6763
10.891
10.1348
9.39972
21.2326
19.989
18.7658
17.5838
16.4569
15.3928
14.3937
13.457
12.5758
11.7415
10.9453
10.1785
9.43412
21.2286
19.988
18.7717
17.5985
16.4789
15.4205
14.4255
13.4907
12.6094
11.7732
10.9737
10.203
9.45449
21.2269
19.9614
18.7361
17.5629
16.4451
15.3917
14.4046
13.4788
12.6053
11.775
10.9791
10.2103
9.46222
21.2252
19.8979
18.6541
17.4784
16.3566
15.3079
14.3345
13.4258
12.5687
11.7516
10.9656
10.2034
9.4597
21.2192
19.7749
18.5221
17.3532
16.2152
15.1709
14.2196
13.3384
12.5065
11.7095
10.9383
10.1866
9.4499
21.1929
19.5551
18.3469
17.2106
16.025
14.9862
14.0699
13.2277
12.4288
11.6569
10.9037
10.1645
9.4362
21.115
19.2285
18.1599
17.0836
15.7987
14.7755
13.908
13.1123
12.3496
11.6038
10.8688
10.142
9.42204
21.0151
19.0178
17.9829
16.9307
15.6076
14.602
13.7749
13.018
12.2853
11.561
10.8408
10.1239
9.41056
20.9693
18.9302
17.8933
16.8443
15.5014
14.5058
13.7008
12.9654
12.2495
11.5372
10.8252
10.1138
9.40415
21.2328
19.9902
18.766
17.5816
16.4516
15.3844
14.3826
13.4437
12.5614
11.7269
10.9313
10.1657
9.42285
21.2242
20.0048
18.8018
17.6344
16.5162
15.4553
14.4546
13.5125
12.6239
11.7813
10.9769
10.2028
9.4522
21.2207
20.0057
18.8088
17.6482
16.5358
15.4792
14.4814
13.5405
12.6514
11.8071
11
10.2227
9.4688
21.2196
19.9903
18.7863
17.6243
16.5129
15.4596
14.4668
13.5316
12.6478
11.8075
11.0031
10.2274
9.47401
21.2194
19.9546
18.7333
17.565
16.4508
15.4001
14.4153
13.4909
12.6179
11.787
10.99
10.2197
9.47003
21.2187
19.893
18.6504
17.4756
16.3546
15.3065
14.3335
13.4251
12.5682
11.7513
10.9654
10.2033
9.45961
21.2137
19.8005
18.5436
17.368
16.2337
15.1882
14.2315
13.3443
12.5075
11.7076
10.9348
10.1825
9.44585
21.1975
19.6852
18.4291
17.2589
16.1046
15.0632
14.1261
13.2623
12.4468
11.664
10.9043
10.1617
9.43195
21.1731
19.5959
18.3308
17.1607
15.9959
14.96
14.04
13.1959
12.3979
11.6291
10.88
10.1451
9.42079
21.1588
19.5515
18.2775
17.1048
15.9347
14.9022
13.9919
13.1588
12.3708
11.6098
10.8665
10.1358
9.41459
21.2211
20.0034
18.8007
17.6322
16.512
15.4487
14.4458
13.5019
12.6121
11.7691
10.965
10.1917
9.44231
21.2143
20.0143
18.8278
17.6726
16.5617
15.5036
14.5019
13.5558
12.6614
11.8123
11.0015
10.2216
9.46615
21.2113
20.0153
18.8334
17.6828
16.576
15.5209
14.5211
13.5759
12.6811
11.8308
11.0181
10.2361
9.47831
21.2101
20.0053
18.8176
17.6646
16.5576
15.5042
14.5075
13.5659
12.6749
11.8278
11.0175
10.2371
9.48021
21.2099
19.9833
18.7814
17.6209
16.5106
15.458
14.4657
13.5309
12.6473
11.8073
11.0029
10.2272
9.47394
21.2099
19.949
18.7271
17.5565
16.4407
15.3886
14.4026
13.4774
12.6044
11.7744
10.9787
10.21
9.46206
21.2088
19.9034
18.6604
17.4798
16.3569
15.3054
14.3273
13.4139
12.5537
11.7355
10.9499
10.1892
9.44747
21.2048
19.8527
18.5913
17.4026
16.2721
15.2217
14.2522
13.3513
12.504
11.6975
10.9217
10.1689
9.43315
21.1982
19.8111
18.5341
17.3383
16.2026
15.1538
14.1919
13.3013
12.4646
11.6675
10.8995
10.1528
9.42181
21.1939
19.7887
18.5024
17.3022
16.1637
15.1159
14.1583
13.2736
12.4428
11.6509
10.8873
10.144
9.41555
21.2095
20.01
18.8231
17.6664
16.5536
15.4936
14.4902
13.5429
12.648
11.7991
10.989
10.2103
9.45619
21.2048
20.0176
18.842
17.6947
16.5886
15.5324
14.53
13.5814
12.6834
11.8303
11.0156
10.2322
9.47379
21.2022
20.017
18.8434
17.6983
16.5943
15.5398
14.5387
13.5909
12.6931
11.8398
11.0244
10.2401
9.48063
21.2007
20.0081
18.8285
17.6795
16.5738
15.5195
14.5203
13.5753
12.6808
11.8306
11.018
10.236
9.47827
21.1999
19.9911
18.7987
17.6413
16.5312
15.4762
14.4795
13.5393
12.6506
11.8066
10.9997
10.2225
9.46868
21.1993
19.9671
18.7571
17.5884
16.4721
15.416
14.4225
13.4888
12.6082
11.7724
10.9732
10.2027
9.45428
21.1985
19.9383
18.7086
17.5277
16.4045
15.3472
14.3578
13.4316
12.5601
11.7338
10.9432
10.1802
9.43781
21.197
19.9088
18.6606
17.4685
16.3387
15.2805
14.2953
13.3767
12.5143
11.6971
10.9148
10.1587
9.42214
21.1949
19.8848
18.6219
17.4209
16.2862
15.2276
14.246
13.3336
12.4784
11.6684
10.8926
10.1421
9.40992
21.1936
19.8717
18.6005
17.3945
16.2571
15.1984
14.2189
13.3099
12.4587
11.6526
10.8804
10.1329
9.40323
21.2009
20.012
18.834
17.6841
16.5756
15.5174
14.5138
13.5648
12.667
11.8149
11.0016
10.22
9.4634
21.1982
20.0158
18.8439
17.6989
16.5941
15.538
14.5352
13.5856
12.6864
11.8322
11.0165
10.2324
9.47341
21.1961
20.0119
18.8384
17.6925
16.5873
15.5316
14.5295
13.5812
12.6833
11.8303
11.0155
10.2322
9.47379
21.1942
20.0008
18.819
17.6669
16.5581
15.5014
14.5005
13.555
12.6609
11.812
11.0013
10.2216
9.46611
21.1925
19.983
18.7872
17.6249
16.51
15.4514
14.4522
13.511
12.6229
11.7807
10.9765
10.2026
9.45209
21.191
19.9601
18.7461
17.5707
16.4482
15.3871
14.3901
13.4547
12.5743
11.7407
10.9447
10.1782
9.43391
21.1896
19.9344
18.7004
17.511
16.3803
15.3168
14.3225
13.3934
12.5216
11.6973
10.9103
10.1518
9.41428
21.188
19.9094
18.6565
17.4541
16.316
15.2504
14.2588
13.336
12.4724
11.6569
10.8784
10.1274
9.39609
21.1865
19.8894
18.6219
17.4094
16.2655
15.1985
14.2092
13.2913
12.4343
11.6257
10.8538
10.1086
9.3821
21.1859
19.8786
18.6029
17.3848
16.2378
15.17
14.182
13.2669
12.4135
11.6087
10.8404
10.0983
9.37448
21.1982
20.0113
18.8348
17.6858
16.5777
15.5195
14.5157
13.5663
12.6681
11.8155
11.0018
10.2199
9.46313
21.1975
20.0102
18.8332
17.6837
16.5755
15.5174
14.5139
13.5649
12.6672
11.815
11.0017
10.2201
9.46344
21.1961
20.0018
18.8182
17.6636
16.5521
15.4928
14.4898
13.5428
12.648
11.7991
10.989
10.2103
9.45624
21.1942
19.9861
18.7898
17.6255
16.508
15.4464
14.4445
13.5012
12.6117
11.769
10.9649
10.1917
9.44233
21.1923
19.9633
18.7487
17.5707
16.4448
15.3802
14.3801
13.4423
12.5605
11.7265
10.9311
10.1656
9.4228
21.1902
19.9349
18.6975
17.5029
16.3672
15.2993
14.3016
13.3708
12.4988
11.6755
10.8905
10.1345
9.39957
21.1879
19.9035
18.6415
17.4294
16.2833
15.2122
14.2177
13.2947
12.4333
11.6217
10.848
10.1019
9.37535
21.1854
19.8731
18.5882