# vtk DataFile Version 2.0
I need something to put here
ASCII

DATASET STRUCTURED_GRID
DIMENSIONS 14 11 21
POINTS 3234 float
2.700000 0.000000 0.000000
2.800000 0.000000 0.000000
2.900000 0.000000 0.000000
3.000000 0.000000 0.000000
3.100000 0.000000 0.000000
3.200000 0.000000 0.000000
3.300000 0.000000 0.000000
3.400000 0.000000 0.000000
3.500000 0.000000 0.000000
3.600000 0.000000 0.000000
3.700000 0.000000 0.000000
3.800000 0.000000 0.000000
3.900000 0.000000 0.000000
4.000000 0.000000 0.000000
2.700000 0.100000 0.000000
2.800000 0.100000 0.000000
2.900000 0.100000 0.000000
3.000000 0.100000 0.000000
3.100000 0.100000 0.000000
3.200000 0.100000 0.000000
3.300000 0.100000 0.000000
3.400000 0.100000 0.000000
3.500000 0.100000 0.000000
3.600000 0.100000 0.000000
3.700000 0.100000 0.000000
3.800000 0.100000 0.000000
3.900000 0.100000 0.000000
4.000000 0.100000 0.000000
2.700000 0.200000 0.000000
2.800000 0.200000 0.000000
2.900000 0.200000 0.000000
3.000000 0.200000 0.000000
3.100000 0.200000 0.000000
3.200000 0.200000 0.000000
3.300000 0.200000 0.000000
3.400000 0.200000 0.000000
3.500000 0.200000 0.000000
3.600000 0.200000 0.000000
3.700000 0.200000 0.000000
3.800000 0.200000 0.000000
3.900000 0.200000 0.000000
4.000000 0.200000 0.000000
2.700000 0.300000 0.000000
2.800000 0.300000 0.000000
2.900000 0.300000 0.000000
3.000000 0.300000 0.000000
3.100000 0.300000 0.000000
3.200000 0.300000 0.000000
3.300000 0.300000 0.000000
3.400000 0.300000 0.000000
3.500000 0.300000 0.000000
3.600000 0.300000 0.000000
3.700000 0.300000 0.000000
3.800000 0.300000 0.000000
3.900000 0.300000 0.000000
4.000000 0.300000 0.000000
2.700000 0.400000 0.000000
2.800000 0.400000 0.000000
2.900000 0.400000 0.000000
3.000000 0.400000 0.000000
3.100000 0.400000 0.000000
3.200000 0.400000 0.000000
3.300000 0.400000 0.000000
3.400000 0.400000 0.000000
3.500000 0.400000 0.000000
3.600000 0.400000 0.000000
3.700000 0.400000 0.000000
3.800000 0.400000 0.000000
3.900000 0.400000 0.000000
4.000000 0.400000 0.000000
2.700000 0.500000 0.000000
2.800000 0.500000 0.000000
2.900000 0.500000 0.000000
3.000000 0.500000 0.000000
3.100000 0.500000 0.000000
3.200000 0.500000 0.000000
3.300000 0.500000 0.000000
3.400000 0.500000 0.000000
3.500000 0.500000 0.000000
3.600000 0.500000 0.000000
3.700000 0.500000 0.000000
3.800000 0.500000 0.000000
3.900000 0.500000 0.000000
4.000000 0.500000 0.000000
2.700000 0.600000 0.000000
2.800000 0.600000 0.000000
2.900000 0.600000 0.000000
3.000000 0.600000 0.000000
3.100000 0.600000 0.000000
3.200000 0.600000 0.000000
3.300000 0.600000 0.000000
3.400000 0.600000 0.000000
3.500000 0.600000 0.000000
3.600000 0.600000 0.000000
3.700000 0.600000 0.000000
3.800000 0.600000 0.000000
3.900000 0.600000 0.000000
4.000000 0.600000 0.000000
2.700000 0.700000 0.000000
2.800000 0.700000 0.000000
2.900000 0.700000 0.000000
3.000000 0.700000 0.000000
3.100000 0.700000 0.000000
3.200000 0.700000 0.000000
3.300000 0.700000 0.000000
3.400000 0.700000 0.000000
3.500000 0.700000 0.000000
3.600000 0.700000 0.000000
3.700000 0.700000 0.000000
3.800000 0.700000 0.000000
3.900000 0.700000 0.000000
4.000000 0.700000 0.000000
2.700000 0.800000 0.000000
2.800000 0.800000 0.000000
2.900000 0.800000 0.000000
3.000000 0.800000 0.000000
3.100000 0.800000 0.000000
3.200000 0.800000 0.000000
3.300000 0.800000 0.000000
3.400000 0.800000 0.000000
3.500000 0.800000 0.000000
3.600000 0.800000 0.000000
3.700000 0.800000 0.000000
3.800000 0.800000 0.000000
3.900000 0.800000 0.000000
4.000000 0.800000 0.000000
2.700000 0.900000 0.000000
2.800000 0.900000 0.000000
2.900000 0.900000 0.000000
3.000000 0.900000 0.000000
3.100000 0.900000 0.000000
3.200000 0.900000 0.000000
3.300000 0.900000 0.000000
3.400000 0.900000 0.000000
3.500000 0.900000 0.000000
3.600000 0.900000 0.000000
3.700000 0.900000 0.000000
3.800000 0.900000 0.000000
3.900000 0.900000 0.000000
4.000000 0.900000 0.000000
2.700000 1.000000 0.000000
2.800000 1.000000 0.000000
2.900000 1.000000 0.000000
3.000000 1.000000 0.000000
3.100000 1.000000 0.000000
3.200000 1.000000 0.000000
3.300000 1.000000 0.000000
3.400000 1.000000 0.000000
3.500000 1.000000 0.000000
3.600000 1.000000 0.000000
3.700000 1.000000 0.000000
3.800000 1.000000 0.000000
3.900000 1.000000 0.000000
4.000000 1.000000 0.000000
2.700000 0.000000 0.100000
2.800000 0.000000 0.100000
2.900000 0.000000 0.100000
3.000000 0.000000 0.100000
3.100000 0.000000 0.100000
3.200000 0.000000 0.100000
3.300000 0.000000 0.100000
3.400000 0.000000 0.100000
3.500000 0.000000 0.100000
3.600000 0.000000 0.100000
3.700000 0.000000 0.100000
3.800000 0.000000 0.100000
3.900000 0.000000 0.100000
4.000000 0.000000 0.100000
2.700000 0.100000 0.100000
2.800000 0.100000 0.100000
2.900000 0.100000 0.100000
3.000000 0.100000 0.100000
3.100000 0.100000 0.100000
3.200000 0.100000 0.100000
3.300000 0.100000 0.100000
3.400000 0.100000 0.100000
3.500000 0.100000 0.100000
3.600000 0.100000 0.100000
3.700000 0.100000 0.100000
3.800000 0.100000 0.100000
3.900000 0.100000 0.100000
4.000000 0.100000 0.100000
2.700000 0.200000 0.100000
2.800000 0.200000 0.100000
2.900000 0.200000 0.100000
3.000000 0.200000 0.100000
3.100000 0.200000 0.100000
3.200000 0.200000 0.100000
3.300000 0.200000 0.100000
3.400000 0.200000 0.100000
3.500000 0.200000 0.100000
3.600000 0.200000 0.100000
3.700000 0.200000 0.100000
3.800000 0.200000 0.100000
3.900000 0.200000 0.100000
4.000000 0.200000 0.100000
2.700000 0.300000 0.100000
2.800000 0.300000 0.100000
2.900000 0.300000 0.100000
3.000000 0.300000 0.100000
3.100000 0.300000 0.100000
3.200000 0.300000 0.100000
3.300000 0.300000 0.100000
3.400000 0.300000 0.100000
3.500000 0.300000 0.100000
3.600000 0.300000 0.100000
3.700000 0.300000 0.100000
3.800000 0.300000 0.100000
3.900000 0.300000 0.100000
4.000000 0.300000 0.100000
2.700000 0.400000 0.100000
2.800000 0.400000 0.100000
2.900000 0.400000 0.100000
3.000000 0.400000 0.100000
3.100000 0.400000 0.100000
3.200000 0.400000 0.100000
3.300000 0.400000 0.100000
3.400000 0.400000 0.100000
3.500000 0.400000 0.100000
3.600000 0.400000 0.100000
3.700000 0.400000 0.100000
3.800000 0.400000 0.100000
3.900000 0.400000 0.100000
4.000000 0.400000 0.100000
2.700000 0.500000 0.100000
2.800000 0.500000 0.100000
2.900000 0.500000 0.100000
3.000000 0.500000 0.100000
3.100000 0.500000 0.100000
3.200000 0.500000 0.100000
3.300000 0.500000 0.100000
3.400000 0.500000 0.100000
3.500000 0.500000 0.100000
3.600000 0.500000 0.100000
3.700000 0.500000 0.100000
3.800000 0.500000 0.100000
3.900000 0.500000 0.100000
4.000000 0.500000 0.100000
2.700000 0.600000 0.100000
2.800000 0.600000 0.100000
2.900000 0.600000 0.100000
3.000000 0.600000 0.100000
3.100000 0.600000 0.100000
3.200000 0.600000 0.100000
3.300000 0.600000 0.100000
3.400000 0.600000 0.100000
3.500000 0.600000 0.100000
3.600000 0.600000 0.100000
3.700000 0.600000 0.100000
3.800000 0.600000 0.100000
3.900000 0.600000 0.100000
4.000000 0.600000 0.100000
2.700000 0.700000 0.100000
2.800000 0.700000 0.100000
2.900000 0.700000 0.100000
3.000000 0.700000 0.100000
3.100000 0.700000 0.100000
3.200000 0.700000 0.100000
3.300000 0.700000 0.100000
3.400000 0.700000 0.100000
3.500000 0.700000 0.100000
3.600000 0.700000 0.100000
3.700000 0.700000 0.100000
3.800000 0.700000 0.100000
3.900000 0.700000 0.100000
4.000000 0.700000 0.100000
2.700000 0.800000 0.100000
2.800000 0.800000 0.100000
2.900000 0.800000 0.100000
3.000000 0.800000 0.100000
3.100000 0.800000 0.100000
3.200000 0.800000 0.100000
3.300000 0.800000 0.100000
3.400000 0.800000 0.100000
3.500000 0.800000 0.100000
3.600000 0.800000 0.100000
3.700000 0.800000 0.100000
3.800000 0.800000 0.100000
3.900000 0.800000 0.100000
4.000000 0.800000 0.100000
2.700000 0.900000 0.100000
2.800000 0.900000 0.100000
2.900000 0.900000 0.100000
3.000000 0.900000 0.100000
3.100000 0.900000 0.100000
3.200000 0.900000 0.100000
3.300000 0.900000 0.100000
3.400000 0.900000 0.100000
3.500000 0.900000 0.100000
3.600000 0.900000 0.100000
3.700000 0.900000 0.100000
3.800000 0.900000 0.100000
3.900000 0.900000 0.100000
4.000000 0.900000 0.100000
2.700000 1.000000 0.100000
2.800000 1.000000 0.100000
2.900000 1.000000 0.100000
3.000000 1.000000 0.100000
3.100000 1.000000 0.100000
3.200000 1.000000 0.100000
3.300000 1.000000 0.100000
3.400000 1.000000 0.100000
3.500000 1.000000 0.100000
3.600000 1.000000 0.100000
3.700000 1.000000 0.100000
3.800000 1.000000 0.100000
3.900000 1.000000 0.100000
4.000000 1.000000 0.100000
2.700000 0.000000 0.200000
2.800000 0.000000 0.200000
2.900000 0.000000 0.200000
3.000000 0.000000 0.200000
3.100000 0.000000 0.200000
3.200000 0.000000 0.200000
3.300000 0.000000 0.200000
3.400000 0.000000 0.200000
3.500000 0.000000 0.200000
3.600000 0.000000 0.200000
3.700000 0.000000 0.200000
3.800000 0.000000 0.200000
3.900000 0.000000 0.200000
4.000000 0.000000 0.200000
2.700000 0.100000 0.200000
2.800000 0.100000 0.200000
2.900000 0.100000 0.200000
3.000000 0.100000 0.200000
3.100000 0.100000 0.200000
3.200000 0.100000 0.200000
3.300000 0.100000 0.200000
3.400000 0.100000 0.200000
3.500000 0.100000 0.200000
3.600000 0.100000 0.200000
3.700000 0.100000 0.200000
3.800000 0.100000 0.200000
3.900000 0.100000 0.200000
4.000000 0.100000 0.200000
2.700000 0.200000 0.200000
2.800000 0.200000 0.200000
2.900000 0.200000 0.200000
3.000000 0.200000 0.200000
3.100000 0.200000 0.200000
3.200000 0.200000 0.200000
3.300000 0.200000 0.200000
3.400000 0.200000 0.200000
3.500000 0.200000 0.200000
3.600000 0.200000 0.200000
3.700000 0.200000 0.200000
3.800000 0.200000 0.200000
3.900000 0.200000 0.200000
4.000000 0.200000 0.200000
2.700000 0.300000 0.200000
2.800000 0.300000 0.200000
2.900000 0.300000 0.200000
3.000000 0.300000 0.200000
3.100000 0.300000 0.200000
3.200000 0.300000 0.200000
3.300000 0.300000 0.200000
3.400000 0.300000 0.200000
3.500000 0.300000 0.200000
3.600000 0.300000 0.200000
3.700000 0.300000 0.200000
3.800000 0.300000 0.200000
3.900000 0.300000 0.200000
4.000000 0.300000 0.200000
2.700000 0.400000 0.200000
[...]
CELL_DATA 2600
SCALARS pressure float 1
LOOKUP_TABLE default
8.67125
7.95997
7.25605
6.55734
5.86221
5.1695
4.47838
3.78828
3.09882
2.40975
1.72093
1.03232
0.34394
8.6716
7.96032
7.25638
6.55763
5.86245
5.1697
4.47854
3.78841
3.09892
2.40982
1.72098
1.03234
0.343911
8.66799
7.95782
7.25471
6.55654
5.86177
5.16929
4.47831
3.78829
3.09886
2.4098
1.72096
1.0323
0.34385
8.66088
7.95282
7.25127
6.55424
5.86028
5.16835
4.47774
3.78796
3.09868
2.4097
1.7209
1.03224
0.343796
8.65087
7.94576
7.24641
6.55097
5.85813
5.16698
4.47689
3.78745
3.09839
2.40953
1.7208
1.03218
0.343761
8.63898
7.93738
7.24063
6.54708
5.85557
5.16533
4.47586
3.78683
3.09803
2.40934
1.7207
1.03213
0.343745
8.6266
7.92867
7.23464
6.54304
5.8529
5.16362
4.47479
3.78618
3.09765
2.40913
1.7206
1.03209
0.343745
8.61536
7.92077
7.2292
6.53938
5.85049
5.16207
4.47382
3.7856
3.09731
2.40895
1.72051
1.03206
0.343754
8.60681
7.91477
7.22507
6.5366
5.84866
5.16089
4.47308
3.78515
3.09705
2.4088
1.72044
1.03204
0.343765
8.60219
7.91153
7.22285
6.5351
5.84767
5.16025
4.47268
3.7849
3.09691
2.40873
1.7204
1.03203
0.343773
8.67153
7.96027
7.25634
6.5576
5.86243
5.16968
4.47853
3.7884
3.09891
2.40982
1.72098
1.03233
0.343909
8.67728
7.96469
7.25968
6.56008
5.86424
5.17099
4.47946
3.78905
3.09937
2.41014
1.72121
1.03249
0.343956
8.67788
7.96537
7.26036
6.5607
5.86479
5.17145
4.47984
3.78936
3.09961
2.41032
1.72134
1.03256
0.343944
8.67417
7.96291
7.2588
6.55977
5.86428
5.1712
4.47975
3.78936
3.09965
2.41038
1.72139
1.03259
0.343932
8.66708
7.958
7.2555
6.55761
5.86292
5.17038
4.47928
3.78912
3.09954
2.41035
1.72139
1.03259
0.343935
8.6578
7.9515
7.25106
6.55466
5.86101
5.16919
4.47856
3.78871
3.09933
2.41025
1.72135
1.03259
0.343954
8.64774
7.94443
7.24621
6.55141
5.85888
5.16784
4.47774
3.78822
3.09906
2.41011
1.7213
1.03259
0.343986
8.63843
7.93787
7.24169
6.54838
5.8569
5.16657
4.47695
3.78776
3.0988
2.40998
1.72125
1.03258
0.344021
8.63128
7.93284
7.23823
6.54604
5.85536
5.16559
4.47634
3.78739
3.0986
2.40988
1.7212
1.03258
0.344051
8.6274
7.93012
7.23635
6.54477
5.85452
5.16505
4.47601
3.78719
3.09848
2.40982
1.72118
1.03258
0.344068
8.66786
7.95771
7.25462
6.55647
5.86172
5.16925
4.47828
3.78826
3.09884
2.40978
1.72095
1.03229
0.343844
8.67783
7.96533
7.26032
6.56067
5.86477
5.17143
4.47982
3.78934
3.0996
2.41031
1.72133
1.03256
0.343941
8.68206
7.96877
7.26306
6.56282
5.86642
5.17268
4.48076
3.79004
3.10011
2.41069
1.72159
1.03271
0.343959
8.68136
7.96862
7.26325
6.56317
5.86684
5.1731
4.48114
3.79037
3.10039
2.41091
1.72176
1.03281
0.343976
8.6768
7.96566
7.26141
6.5621
5.86627
5.17285
4.48108
3.79042
3.10048
2.41102
1.72185
1.03288
0.344011
8.66966
7.9608
7.25821
6.56006
5.86503
5.17214
4.48071
3.79025
3.10043
2.41103
1.7219
1.03294
0.344066
8.66139
7.95511
7.25439
6.55758
5.86346
5.17119
4.48017
3.78997
3.10031
2.411
1.72192
1.03298
0.344132
8.6535
7.94964
7.25069
6.55514
5.86191
5.17023
4.4796
3.78966
3.10015
2.41094
1.72192
1.03302
0.344198
8.64736
7.94538
7.2478
6.55323
5.86068
5.16947
4.47914
3.7894
3.10002
2.41089
1.72191
1.03304
0.344252
8.64401
7.94306
7.24622
6.55218
5.85999
5.16904
4.47889
3.78925
3.09994
2.41085
1.7219
1.03306
0.344281
8.66072
7.95268
7.25115
6.55414
5.86019
5.16828
4.47768
3.78791
3.09864
2.40967
1.72087
1.03222
0.343785
8.67412
7.96286
7.25875
6.55972
5.86423
5.17116
4.47971
3.78933
3.09963
2.41036
1.72137
1.03258
0.343926
8.68137
7.96861
7.26323
6.56315
5.86682
5.17309
4.48113
3.79036
3.10038
2.4109
1.72175
1.03281
0.343973
8.68318
7.97044
7.26493
6.56464
5.86808
5.17412
4.48196
3.79101
3.10088
2.41128
1.72203
1.03298
0.34402
8.68066
7.96913
7.26438
6.56456
5.86826
5.17442
4.4823
3.79134
3.10118
2.41153
1.72222
1.03311
0.344088
8.67516
7.96563
7.26227
6.56337
5.86766
5.17418
4.48227
3.79143
3.10131
2.41168
1.72236
1.03323
0.344179
8.66819
7.96104
7.25935
6.56159
5.86663
5.17364
4.48202
3.79136
3.10134
2.41175
1.72245
1.03332
0.344283
8.66128
7.95643
7.25636
6.55971
5.8655
5.173
4.4817
3.79122
3.10131
2.41178
1.72251
1.0334
0.344382
8.65581
7.95275
7.25395
6.55818
5.86456
5.17246
4.4814
3.79108
3.10126
2.41179
1.72255
1.03346
0.344461
8.65279
7.95074
7.25262
6.55733
5.86404
5.17214
4.48123
3.791
3.10123
2.41179
1.72257
1.03349
0.344504
8.65074
7.94563
7.24628
6.55085
5.85803
5.16689
4.47681
3.78738
3.09833
2.40949
1.72077
1.03215
0.343745
8.66708
7.95797
7.25545
6.55756
5.86286
5.17033
4.47924
3.78907
3.09951
2.41032
1.72136
1.03258
0.343925
8.67686
7.96567
7.2614
6.56208
5.86625
5.17283
4.48106
3.7904
3.10046
2.411
1.72184
1.03287
0.344005
8.68072
7.96915
7.26439
6.56456
5.86825
5.17441
4.48229
3.79133
3.10117
2.41152
1.72221
1.03311
0.344085
8.67978
7.96919
7.26496
6.56536
5.8691
5.17522
4.483
3.79194
3.10166
2.41191
1.7225
1.0333
0.344191
8.67548
7.9668
7.26378
6.56493
5.86909
5.17543
4.48331
3.79227
3.10197
2.41219
1.72273
1.03348
0.344321
8.66939
7.96307
7.26162
6.56378
5.86857
5.17528
4.48336
3.79242
3.10216
2.41237
1.72291
1.03363
0.344462
8.66309
7.9591
7.25922
6.5624
5.86785
5.17496
4.48327
3.79246
3.10226
2.4125
1.72303
1.03376
0.344596
8.65801
7.95587
7.25722
6.56122
5.8672
5.17463
4.48315
3.79245
3.10231
2.41257
1.72312
1.03385
0.3447
8.65519
7.95409
7.25612
6.56056
5.86682
5.17444
4.48306
3.79243
3.10232
2.41261
1.72316
1.0339
0.344757
8.63892
7.93728
7.24052
6.54696
5.85546
5.16524
4.47578
3.78676
3.09796
2.40928
1.72065
1.03209
0.343725
8.65788
7.95152
7.25104
6.55462
5.86096
5.16913
4.47851
3.78866
3.09929
2.41021
1.72132
1.03257
0.343942
8.6698
7.96088
7.25824
6.56006
5.86501
5.17212
4.48068
3.79022
3.10041
2.41101
1.72188
1.03292
0.344057
8.67531
7.96572
7.26232
6.56339
5.86766
5.17418
4.48226
3.79142
3.1013
2.41166
1.72234
1.03322
0.344174
8.67557
7.96685
7.26381
6.56494
5.8691
5.17544
4.48331
3.79227
3.10197
2.41218
1.72273
1.03348
0.344318
8.6721
7.96532
7.26343
6.56518
5.86963
5.17607
4.48394
3.79284
3.10246
2.41258
1.72304
1.03371
0.344488
8.66656
7.96227
7.26192
6.56459
5.86957
5.17628
4.48427
3.7932
3.1028
2.41288
1.72329
1.03392
0.344668
8.66061
7.9588
7.26002
6.56367
5.86923
5.17626
4.48441
3.79341
3.10303
2.4131
1.72349
1.0341
0.344835
8.65573
7.9559
7.25837
6.56281
5.86884
5.17615
4.48446
3.79352
3.10317
2.41324
1.72363
1.03423
0.344964
8.65301
7.95428
7.25745
6.56231
5.86861
5.17607
4.48446
3.79357
3.10323
2.41331
1.72369
1.03429
0.345035
8.62666
7.92864
7.23457
6.54295
5.85281
5.16353
4.4747
3.7861
3.09758
2.40907
1.72054
1.03204
0.343721
8.64793
7.94452
7.24623
6.55139
5.85885
5.16779
4.47769
3.78817
3.09902
2.41007
1.72126
1.03256
0.34397
8.66165
7.95526
7.25447
6.5576
5.86346
5.17118
4.48014
3.78994
3.10028
2.41097
1.72189
1.03296
0.34412
8.66845
7.96121
7.25945
6.56164
5.86665
5.17364
4.48202
3.79135
3.10132
2.41174
1.72243
1.03331
0.344274
8.66959
7.96321
7.26171
6.56383
5.8686
5.17529
4.48336
3.79242
3.10215
2.41237
1.7229
1.03363
0.344456
8.66667
7.96235
7.26197
6.56463
5.86959
5.17629
4.48428
3.7932
3.1028
2.41288
1.72329
1.03392
0.344665
8.66145
7.9598
7.261
6.56453
5.86994
5.17683
4.48486
3.79375
3.10328
2.41328
1.72362
1.03418
0.344882
8.65567
7.9567
7.25952
6.564
5.86994
5.17708
4.48522
3.79413
3.10363
2.41359
1.72388
1.0344
0.34508
8.65087
7.95406
7.25817
6.56342
5.86979
5.17717
4.48541
3.79436
3.10386
2.4138
1.72406
1.03456
0.345232
8.64818
7.95257
7.25741
6.56308
5.86969
5.1772
4.4855
3.79447
3.10397
2.4139
1.72415
1.03465
0.345315
8.61554
7.92083
7.22919
6.53932
5.85042
5.16199
4.47374
3.78552
3.09724
2.40888
1.72045
1.03201
0.343727
8.63874
7.93805
7.24178
6.5484
5.85688
5.16654
4.47691
3.78771
3.09875
2.40994
1.72121
1.03255
0.344003
8.65388
7.94988
7.25083
6.55521
5.86193
5.17023
4.47959
3.78963
3.10013
2.41091
1.72189
1.033
0.344184
8.66166
7.95668
7.25651
6.5598
5.86555
5.17302
4.4817
3.79121
3.1013
2.41177
1.7225
1.03339
0.344371
8.66341
7.95933
7.25937
6.56249
5.8679
5.17498
4.48328
3.79246
3.10226
2.41249
1.72303
1.03375
0.344587
8.66084
7.95897
7.26013
6.56374
5.86927
5.17629
4.48443
3.79342
3.10303
2.4131
1.72349
1.03409
0.344829
8.65579
7.95679
7.25959
6.56405
5.86996
5.1771
4.48523
3.79413
3.10364
2.41359
1.72388
1.0344
0.345077
8.65007
7.95398
7.25845
6.56384
5.87023
5.17758
4.48576
3.79464
3.10409
2.41397
1.72419
1.03466
0.345302
8.64528
7.95152
7.25734
6.56349
5.87029
5.17783
4.48609
3.79497
3.10439
2.41423
1.72441
1.03484
0.345474
8.64259
7.95013
7.2567
6.56327
5.87029
5.17794
4.48624
3.79513
3.10454
2.41436
1.72452
1.03494
0.345567
8.60711
7.91492
7.22512
6.53659
5.84862
5.16083
4.47301
3.78507
3.09698
2.40874
1.72038
1.03199
0.343736
8.63171
7.9331
7.23837
6.54611
5.85537
5.16557
4.47631
3.78735
3.09855
2.40983
1.72116
1.03255
0.344031
8.64785
7.94569
7.248
6.55334
5.86073
5.16949
4.47914
3.78938
3.1
2.41086
1.72188
1.03302
0.344235
8.65628
7.95308
7.25417
6.55832
5.86464
5.1725
4.48142
3.79108
3.10125
2.41178
1.72253
1.03345
0.344446
8.65843
7.95617
7.25743
6.56136
5.86728
5.17468
4.48317
3.79246
3.10231
2.41257
1.72311
1.03384
0.344688
8.65606
7.95614
7.25855
6.56293
5.86892
5.1762
4.48448
3.79354
3.10317
2.41324
1.72362
1.03422
0.344955
8.65109
7.95422
7.2583
6.56351
5.86985
5.17721
4.48544
3.79437
3.10387
2.4138
1.72406
1.03456
0.345226
8.64539
7.95159
7.2574
6.56354
5.87033
5.17785
4.4861
3.79498
3.10439
2.41423
1.72441
1.03484
0.34547
8.64059
7.94926
7.25646
6.56336
5.87054
5.17823
4.48652
3.79538
3.10475
2.41453
1.72465
1.03505
0.345656
8.63788
7.94794
7.25592
6.56323
5.87061
5.1784
4.48673
3.79558
3.10492
2.41468
1.72478
1.03516
0.345757
8.6026
7.91175
7.22295
6.53513
5.84766
5.16021
4.47263
3.78484
3.09685
2.40866
1.72034
1.03198
0.343742
8.62792
7.93044
7.23654
6.54488
5.85457
5.16505
4.47599
3.78716
3.09844
2.40978
1.72114
1.03255
0.344046
8.64458
7.94343
7.24647
6.55233
5.86008
5.16908
4.4789
3.78924
3.09993
2.41083
1.72188
1.03303
0.344263
8.65335
7.95112
7.25288
6.5575
5.86414
5.17221
4.48126
3.79101
3.10123
2.41178
1.72255
1.03347
0.344487
8.6557
7.95443
7.25636
6.56073
5.86693
5.17451
4.48311
3.79245
3.10233
2.41261
1.72315
1.03389
0.344742
8.65342
7.95457
7.25766
6.56246
5.86871
5.17614
4.4845
3.7936
3.10325
2.41331
1.72369
1.03428
0.345022
8.64849
7.95278
7.25757
6.5632
5.86977
5.17725
4.48554
3.79449
3.10398
2.4139
1.72415
1.03464
0.345305
8.64278
7.95025
7.2568
6.56335
5.87035
5.17798
4.48627
3.79515
3.10455
2.41437
1.72452
1.03494
0.34556
8.63797
7.94799
7.25595
6.56326
5.87064
5.17842
4.48674
3.79559
3.10493
2.41469
1.72478
1.03516
0.345753
8.63526
7.9467
7.25545
6.56317
5.87076
5.17863
4.48697
3.79581
3.10512
2.41485
1.72492
1.03527
0.345858
8.60266
7.9118
7.22299
6.53515
5.84768
5.16022
4.47263
3.78485
3.09685
2.40866
1.72034
1.03198
0.343741
8.62799
7.93049
7.23658
6.5449
5.85459
5.16507
4.476
3.78717
3.09845
2.40978
1.72114
1.03255
0.344045
8.64464
7.94348
7.2465
6.55236
5.8601
5.16909
4.47891
3.78925
3.09993
2.41083
1.72188
1.03303
0.344261
8.65341
7.95116
7.25292
6.55753
5.86416
5.17222
4.48127
3.79101
3.10123
2.41178
1.72255
1.03347
0.344485
8.65576
7.95448
7.2564
6.56075
5.86695
5.17452
4.48311
3.79245
3.10233
2.41261
1.72315
1.03389
0.34474
8.65349
7.95462
7.2577
6.56249
5.86873
5.17615
4.48451
3.7936
3.10325
2.41331
1.72369
1.03428
0.34502
8.64855
7.95283
7.2576
6.56322
5.86979
5.17727
4.48554
3.79449
3.10399
2.4139
1.72415
1.03464
0.345303
8.64284
7.9503
7.25683
6.56337
5.87037
5.178
4.48628
3.79515
3.10455
2.41437
1.72452
1.03494
0.345557
8.63803
7.94804
7.25598
6.56328
5.87066
5.17844
4.48675
3.79559
3.10493
2.41469
1.72478
1.03515
0.34575
8.63532
7.94675
7.25548
6.5632
5.87078
5.17864
4.48698
3.79581
3.10513
2.41485
1.72492
1.03527
0.345855
8.6073
7.91506
7.22523
6.53667
5.84867
5.16087
4.47304
3.78509
3.09699
2.40874
1.72038
1.03198
0.343733
8.63189
7.93324
7.23848
6.54619
5.85543
5.16561
4.47634
3.78737
3.09856
2.40984
1.72116
1.03255
0.344027
8.64803
7.94583
7.2481
6.55342
5.86079
5.16953
4.47917
3.7894
3.10001
2.41086
1.72188
1.03302
0.344231
8.65646
7.95322
7.25427
6.55839
5.8647
5.17254
4.48145
3.7911
3.10126
2.41178
1.72253
1.03344
0.344441
8.65861
7.95631
7.25754
6.56143
5.86733
5.17472
4.4832
3.79247
3.10232
2.41257
1.72311
1.03384
0.344681
8.65624
7.95628
7.25865
6.563
5.86897
5.17624
4.48451
3.79355
3.10318
2.41324
1.72362
1.03421
0.344947
8.65127
7.95436
7.2584
6.56359
5.86991
5.17725
4.48546
3.79438
3.10387
2.4138
1.72405
1.03455
0.345218
8.64557
7.95173
7.25751
6.56362
5.87038
5.17789
4.48612
3.79499
3.1044
2.41423
1.7244
1.03484
0.345462
8.64077
7.9494
7.25657
6.56344
5.87059
5.17826
4.48654
3.79539
3.10475
2.41453
1.72465
1.03504
0.345647
8.63806
7.94808
7.25602
6.5633
5.87066
5.17844
4.48675
3.79559
3.10493
2.41468
1.72478
1.03515
0.345748
8.61584
7.92106
7.22936
6.53945
5.85051
5.16205
4.47378
3.78554
3.09725
2.40888
1.72045
1.032
0.343722
8.63903
7.93828
7.24195
6.54852
5.85697
5.1666
4.47695
3.78774
3.09877
2.40994
1.72121
1.03255
0.343997
8.65417
7.9501
7.251
6.55534
5.86202
5.1703
4.47963
3.78966
3.10014
2.41092
1.72189
1.03299
0.344177
8.66194
7.9569
7.25668
6.55993
5.86564
5.17308
4.48174
3.79124
3.10131
2.41177
1.72249
1.03338
0.344362
8.6637
7.95955
7.25954
6.56261
5.86799
5.17504
4.48332
3.79248
3.10227
2.4125
1.72302
1.03375
0.344576
8.66113
7.95919
7.2603
6.56386
5.86936
5.17634
4.48447
3.79344
3.10304
2.4131
1.72348
1.03408
0.344817
8.65608
7.95702
7.25975
6.56416
5.87005
5.17716
4.48526
3.79415
3.10364
2.41359
1.72387
1.03439
0.345064
8.65037
7.9542
7.25862
6.56396
5.87031
5.17763
4.48579
3.79466
3.10409
2.41397
1.72418
1.03465
0.345288
8.64558
7.95174
7.25751
6.56361
5.87037
5.17789
4.48612
3.79499
3.10439
2.41423
1.7244
1.03483
0.345459
8.64288
7.95035
7.25686
6.56339
5.87037
5.178
4.48627
3.79515
3.10454
2.41436
1.72451
1.03493
0.345552
8.62706
7.92895
7.23479
6.54311
5.85293
5.16361
4.47476
3.78613
3.0976
2.40907
1.72054
1.03204
0.343713
8.64832
7.94482
7.24645
6.55156
5.85897
5.16788
4.47774
3.78821
3.09903
2.41008
1.72126
1.03255
0.343962
8.66203
7.95555
7.25469
6.55777
5.86358
5.17126
4.4802
3.78997
3.1003
2.41098
1.72189
1.03296
0.344111
8.66883
7.9615
7.25967
6.5618
5.86677
5.17372
4.48207
3.79138
3.10134
2.41174
1.72243
1.0333
0.344262
8.66997
7.9635
7.26193
6.56399
5.86871
5.17537
4.48341
3.79245
3.10217
2.41237
1.72289
1.03362
0.344442
8.66705
7.96264
7.26218
6.56478
5.8697
5.17637
4.48432
3.79322
3.10281
2.41288
1.72329
1.03391
0.344649
8.66184
7.96009
7.26121
6.56469
5.87005
5.17691
4.48491
3.79378
3.10329
2.41328
1.72361
1.03417
0.344865
8.65606
7.957
7.25974
6.56416
5.87004
5.17715
4.48526
3.79415
3.10364
2.41359
1.72387
1.03439
0.345062
8.65126
7.95435
7.25839
6.56358
5.8699
5.17724
4.48545
3.79438
3.10386
2.41379
1.72405
1.03455
0.345213
8.64856
7.95286
7.25762
6.56323
5.86979
5.17726
4.48554
3.79448
3.10398
2.41389
1.72414
1.03463
0.345295
8.63939
7.93764
7.24079
6.54716
5.8556
5.16533
4.47584
3.78679
3.09798
2.40928
1.72065
1.03208
0.343715
8.65834
7.95187
7.2513
6.55481
5.8611
5.16923
4.47857
3.78869
3.0993
2.41021
1.72132
1.03256
0.343932
8.67026
7.96123
7.2585
6.56026
5.86515
5.17221
4.48074
3.79026
3.10043
2.41101
1.72188
1.03291
0.344045
8.67576
7.96607
7.26258
6.56358
5.8678
5.17427
4.48232
3.79145
3.10131
2.41167
1.72234
1.03321
0.344159
8.67602
7.9672
7.26407
6.56513
5.86923
5.17552
4.48337
3.7923
3.10198
2.41218
1.72272
1.03346
0.344301
8.67255
7.96567
7.26368
6.56536
5.86976
5.17615
4.48399
3.79286
3.10247
2.41258
1.72303
1.0337
0.344469
8.66702
7.96261
7.26217
6.56477
5.8697
5.17636
4.48432
3.79322
3.10281
2.41288
1.72328
1.03391
0.344647
8.66107
7.95914
7.26027
6.56385
5.86935
5.17634
4.48446
3.79343
3.10303
2.41309
1.72348
1.03408
0.344813
8.65619
7.95624
7.25862
6.56299
5.86896
5.17623
4.4845
3.79354
3.10317
2.41323
1.72361
1.03421
0.344941
8.65346
7.95462
7.2577
6.56249
5.86873
5.17614
4.4845
3.79359
3.10323
2.4133
1.72368
1.03427
0.345011
8.65126
7.94602
7.24658
6.55107
5.85818
5.16699
4.47687
3.78742
3.09834
2.40949
1.72076
1.03214
0.343734
8.66759
7.95836
7.25574
6.55777
5.86301
5.17043
4.4793
3.78911
3.09952
2.41032
1.72136
1.03256
0.343914
8.67736
7.96606
7.26169
6.56229
5.8664
5.17293
4.48112
3.79043
3.10047
2.411
1.72183
1.03286
0.343992
8.68122
7.96953
7.26468
6.56477
5.8684
5.17451
4.48235
3.79137
3.10118
2.41152
1.72221
1.03309
0.344069
8.68028
7.96957
7.26524
6.56556
5.86924
5.17531
4.48305
3.79196
3.10167
2.41191
1.72249
1.03329
0.344172
8.67598
7.96717
7.26406
6.56512
5.86923
5.17552
4.48336
3.79229
3.10198
2.41218
1.72272
1.03346
0.344299
8.66989
7.96345
7.2619
6.56397
5.8687
5.17536
4.4834
3.79244
3.10216
2.41236
1.72289
1.03361
0.344439
8.66359
7.95948
7.25949
6.56259
5.86797
5.17503
4.48331
3.79247
3.10226
2.41248
1.72301
1.03374
0.344571
8.65851
7.95625
7.25749
6.56141
5.86732
5.1747
4.48318
3.79246
3.1023
2.41256
1.7231
1.03383
0.344674
8.65568
7.95445
7.25638
6.56074
5.86694
5.17451
4.4831
3.79243
3.10232
2.41259
1.72314
1.03388
0.34473
8.66127
7.95309
7.25146
6.55436
5.86034
5.16838
4.47774
3.78793
3.09864
2.40966
1.72086
1.03221
0.343773
8.67466
7.96327
7.25905
6.55994
5.86438
5.17126
4.47977
3.78936
3.09964
2.41036
1.72136
1.03256
0.343914
8.6819
7.96902
7.26353
6.56337
5.86697
5.17318
4.48119
3.79039
3.10038
2.4109
1.72174
1.03279
0.343959
8.68371
7.97084
7.26522
6.56485
5.86822
5.17421
4.48201
3.79104
3.10089
2.41127
1.72201
1.03296
0.344002
8.68118
7.96951
7.26467
6.56476
5.86839
5.1745
4.48234
3.79136
3.10118
2.41152
1.7222
1.03309
0.344068
8.67568
7.96602
7.26255
6.56356
5.86778
5.17426
4.48231
3.79144
3.1013
2.41166
1.72233
1.0332
0.344156
8.66871
7.96143
7.25962
6.56177
5.86674
5.17371
4.48205
3.79136
3.10133
2.41173
1.72242
1.0333
0.344257
8.6618
7.95681
7.25663
6.55989
5.86561
5.17306
4.48172
3.79122
3.10129
2.41175
1.72248
1.03337
0.344355
8.65632
7.95313
7.25421
6.55836
5.86467
5.17251
4.48142
3.79108
3.10124
2.41176
1.72251
1.03343
0.344432
8.6533
7.95111
7.25289
6.55751
5.86414
5.1722
4.48125
3.79099
3.10121
2.41176
1.72253
1.03346
0.344474
8.6684
7.95812
7.25492
6.55668
5.86186
5.16933
4.47832
3.78828
3.09884
2.40977
1.72093
1.03227
0.343831
8.67837
7.96573
7.26062
6.56088
5.86491
5.17152
4.47987
3.78936
3.0996
2.4103
1.72131
1.03254
0.343928
8.68259
7.96917
7.26335
6.56302
5.86656
5.17277
4.4808
3.79005
3.1001
2.41067
1.72157
1.03269
0.343944
8.68188
7.96901
7.26352
6.56336
5.86696
5.17318
4.48118
3.79038
3.10038
2.41089
1.72174
1.03279
0.343957
8.67731
7.96603
7.26167
6.56228
5.86638
5.17292
4.48111
3.79042
3.10046
2.41099
1.72183
1.03286
0.343989
8.67016
7.96117
7.25846
6.56023
5.86513
5.17219
4.48073
3.79024
3.10041
2.411
1.72187
1.03291
0.34404
8.66189
7.95547
7.25464
6.55773
5.86355
5.17124
4.48017
3.78995
3.10028
2.41096
1.72188
1.03295
0.344104
8.654
7.95
7.25094
6.5553
5.86199
5.17027
4.4796
3.78963
3.10012
2.4109
1.72187
1.03298
0.344168
8.64786
7.94573
7.24804
6.55337
5.86075
5.1695
4.47914
3.78937
3.09998
2.41084
1.72186
1.033
0.34422
8.6445
7.9434
7.24646
6.55232
5.86007
5.16907
4.47888
3.78922
3.0999
2.4108
1.72185
1.03301
0.344249
8.67206
7.96066
7.25662
6.55779
5.86256
5.16976
4.47856
3.78841
3.0989
2.4098
1.72095
1.03231
0.343895
8.6778
7.96507
7.25996
6.56027
5.86437
5.17106
4.47949
3.78906
3.09936
2.41012
1.72119
1.03247
0.343941
8.67838
7.96574
7.26062
6.56088
5.86491
5.17152
4.47987
3.78936
3.09959
2.4103
1.72131
1.03254
0.343927
8.67465
7.96326
7.25905
6.55993
5.86437
5.17125
4.47976
3.78935
3.09963
2.41035
1.72135
1.03256
0.34391
8.66754
7.95833
7.25572
6.55776
5.863
5.17042
4.47928
3.78909
3.09951
2.4103
1.72134
1.03255
0.343909
8.65825
7.95182
7.25127
6.55479
5.86107
5.16921
4.47855
3.78867
3.09928
2.41019
1.7213
1.03255
0.343925
8.64818
7.94474
7.2464
6.55152
5.85893
5.16784
4.47771
3.78818
3.099
2.41005
1.72124
1.03254
0.343954
8.63887
7.93817
7.24188
6.54848
5.85693
5.16656
4.47692
3.7877
3.09874
2.40991
1.72118
1.03253
0.343986
8.63171
7.93314
7.23841
6.54613
5.85539
5.16557
4.4763
3.78733
3.09852
2.4098
1.72113
1.03252
0.344014
8.62783
7.93041
7.23653
6.54486
5.85455
5.16503
4.47596
3.78712
3.0984
2.40974
1.7211
1.03252
0.34403
8.67176
7.96034
7.25632
6.55752
5.86232
5.16956
4.47841
3.78828
3.0988
2.40972
1.7209
1.03229
0.343927
8.67208
7.96067
7.25663
6.5578
5.86256
5.16976
4.47856
3.7884
3.0989
2.40979
1.72095
1.03231
0.343895
8.66844
7.95815
7.25493
6.55668
5.86186
5.16933
4.47832
3.78827