# vtk DataFile Version 2.0
I need something to put here
ASCII

DATASET STRUCTURED_GRID
DIMENSIONS 41 11 21
POINTS 9471 float
0.000000 1.000000 0.000000
0.100000 1.000000 0.000000
0.200000 1.000000 0.000000
0.300000 1.000000 0.000000
0.400000 1.000000 0.000000
0.500000 1.000000 0.000000
0.600000 1.000000 0.000000
0.700000 1.000000 0.000000
0.800000 1.000000 0.000000
0.900000 1.000000 0.000000
1.000000 1.000000 0.000000
1.100000 1.000000 0.000000
1.200000 1.000000 0.000000
1.300000 1.000000 0.000000
1.400000 1.000000 0.000000
1.500000 1.000000 0.000000
1.600000 1.000000 0.000000
1.700000 1.000000 0.000000
1.800000 1.000000 0.000000
1.900000 1.000000 0.000000
2.000000 1.000000 0.000000
2.100000 1.000000 0.000000
2.200000 1.000000 0.000000
2.300000 1.000000 0.000000
2.400000 1.000000 0.000000
2.500000 1.000000 0.000000
2.600000 1.000000 0.000000
2.700000 1.000000 0.000000
2.800000 1.000000 0.000000
2.900000 1.000000 0.000000
3.000000 1.000000 0.000000
3.100000 1.000000 0.000000
3.200000 1.000000 0.000000
3.300000 1.000000 0.000000
3.400000 1.000000 0.000000
3.500000 1.000000 0.000000
3.600000 1.000000 0.000000
3.700000 1.000000 0.000000
3.800000 1.000000 0.000000
3.900000 1.000000 0.000000
4.000000 1.000000 0.000000
0.000000 1.100000 0.000000
0.100000 1.100000 0.000000
0.200000 1.100000 0.000000
0.300000 1.100000 0.000000
0.400000 1.100000 0.000000
0.500000 1.100000 0.000000
0.600000 1.100000 0.000000
0.700000 1.100000 0.000000
0.800000 1.100000 0.000000
0.900000 1.100000 0.000000
1.000000 1.100000 0.000000
1.100000 1.100000 0.000000
1.200000 1.100000 0.000000
1.300000 1.100000 0.000000
1.400000 1.100000 0.000000
1.500000 1.100000 0.000000
1.600000 1.100000 0.000000
1.700000 1.100000 0.000000
1.800000 1.100000 0.000000
1.900000 1.100000 0.000000
2.000000 1.100000 0.000000
2.100000 1.100000 0.000000
2.200000 1.100000 0.000000
2.300000 1.100000 0.000000
2.400000 1.100000 0.000000
2.500000 1.100000 0.000000
2.600000 1.100000 0.000000
2.700000 1.100000 0.000000
2.800000 1.100000 0.000000
2.900000 1.100000 0.000000
3.000000 1.100000 0.000000
3.100000 1.100000 0.000000
3.200000 1.100000 0.000000
3.300000 1.100000 0.000000
3.400000 1.100000 0.000000
3.500000 1.100000 0.000000
3.600000 1.100000 0.000000
3.700000 1.100000 0.000000
3.800000 1.100000 0.000000
3.900000 1.100000 0.000000
4.000000 1.100000 0.000000
0.000000 1.200000 0.000000
0.100000 1.200000 0.000000
0.200000 1.200000 0.000000
0.300000 1.200000 0.000000
0.400000 1.200000 0.000000
0.500000 1.200000 0.000000
0.600000 1.200000 0.000000
0.700000 1.200000 0.000000
0.800000 1.200000 0.000000
0.900000 1.200000 0.000000
1.000000 1.200000 0.000000
1.100000 1.200000 0.000000
1.200000 1.200000 0.000000
1.300000 1.200000 0.000000
1.400000 1.200000 0.000000
1.500000 1.200000 0.000000
1.600000 1.200000 0.000000
1.700000 1.200000 0.000000
1.800000 1.200000 0.000000
1.900000 1.200000 0.000000
2.000000 1.200000 0.000000
2.100000 1.200000 0.000000
2.200000 1.200000 0.000000
2.300000 1.200000 0.000000
2.400000 1.200000 0.000000
2.500000 1.200000 0.000000
2.600000 1.200000 0.000000
2.700000 1.200000 0.000000
2.800000 1.200000 0.000000
2.900000 1.200000 0.000000
3.000000 1.200000 0.000000
3.100000 1.200000 0.000000
3.200000 1.200000 0.000000
3.300000 1.200000 0.000000
3.400000 1.200000 0.000000
3.500000 1.200000 0.000000
3.600000 1.200000 0.000000
3.700000 1.200000 0.000000
3.800000 1.200000 0.000000
3.900000 1.200000 0.000000
4.000000 1.200000 0.000000
0.000000 1.300000 0.000000
0.100000 1.300000 0.000000
0.200000 1.300000 0.000000
0.300000 1.300000 0.000000
0.400000 1.300000 0.000000
0.500000 1.300000 0.000000
0.600000 1.300000 0.000000
0.700000 1.300000 0.000000
0.800000 1.300000 0.000000
0.900000 1.300000 0.000000
1.000000 1.300000 0.000000
1.100000 1.300000 0.000000
1.200000 1.300000 0.000000
1.300000 1.300000 0.000000
1.400000 1.300000 0.000000
1.500000 1.300000 0.000000
1.600000 1.300000 0.000000
1.700000 1.300000 0.000000
1.800000 1.300000 0.000000
1.900000 1.300000 0.000000
2.000000 1.300000 0.000000
2.100000 1.300000 0.000000
2.200000 1.300000 0.000000
2.300000 1.300000 0.000000
2.400000 1.300000 0.000000
2.500000 1.300000 0.000000
2.600000 1.300000 0.000000
2.700000 1.300000 0.000000
2.800000 1.300000 0.000000
2.900000 1.300000 0.000000
3.000000 1.300000 0.000000
3.100000 1.300000 0.000000
3.200000 1.300000 0.000000
3.300000 1.300000 0.000000
3.400000 1.300000 0.000000
3.500000 1.300000 0.000000
3.600000 1.300000 0.000000
3.700000 1.300000 0.000000
3.800000 1.300000 0.000000
3.900000 1.300000 0.000000
4.000000 1.300000 0.000000
0.000000 1.400000 0.000000
0.100000 1.400000 0.000000
0.200000 1.400000 0.000000
0.300000 1.400000 0.000000
0.400000 1.400000 0.000000
0.500000 1.400000 0.000000
0.600000 1.400000 0.000000
0.700000 1.400000 0.000000
0.800000 1.400000 0.000000
0.900000 1.400000 0.000000
1.000000 1.400000 0.000000
1.100000 1.400000 0.000000
1.200000 1.400000 0.000000
1.300000 1.400000 0.000000
1.400000 1.400000 0.000000
1.500000 1.400000 0.000000
1.600000 1.400000 0.000000
1.700000 1.400000 0.000000
1.800000 1.400000 0.000000
1.900000 1.400000 0.000000
2.000000 1.400000 0.000000
2.100000 1.400000 0.000000
2.200000 1.400000 0.000000
2.300000 1.400000 0.000000
2.400000 1.400000 0.000000
2.500000 1.400000 0.000000
2.600000 1.400000 0.000000
2.700000 1.400000 0.000000
2.800000 1.400000 0.000000
2.900000 1.400000 0.000000
3.000000 1.400000 0.000000
3.100000 1.400000 0.000000
3.200000 1.400000 0.000000
3.300000 1.400000 0.000000
3.400000 1.400000 0.000000
3.500000 1.400000 0.000000
3.600000 1.400000 0.000000
3.700000 1.400000 0.000000
3.800000 1.400000 0.000000
3.900000 1.400000 0.000000
4.000000 1.400000 0.000000
0.000000 1.500000 0.000000
0.100000 1.500000 0.000000
0.200000 1.500000 0.000000
0.300000 1.500000 0.000000
0.400000 1.500000 0.000000
0.500000 1.500000 0.000000
0.600000 1.500000 0.000000
0.700000 1.500000 0.000000
0.800000 1.500000 0.000000
0.900000 1.500000 0.000000
1.000000 1.500000 0.000000
1.100000 1.500000 0.000000
1.200000 1.500000 0.000000
1.300000 1.500000 0.000000
1.400000 1.500000 0.000000
1.500000 1.500000 0.000000
1.600000 1.500000 0.000000
1.700000 1.500000 0.000000
1.800000 1.500000 0.000000
1.900000 1.500000 0.000000
2.000000 1.500000 0.000000
2.100000 1.500000 0.000000
2.200000 1.500000 0.000000
2.300000 1.500000 0.000000
2.400000 1.500000 0.000000
2.500000 1.500000 0.000000
2.600000 1.500000 0.000000
2.700000 1.500000 0.000000
2.800000 1.500000 0.000000
2.900000 1.500000 0.000000
3.000000 1.500000 0.000000
3.100000 1.500000 0.000000
3.200000 1.500000 0.000000
3.300000 1.500000 0.000000
3.400000 1.500000 0.000000
3.500000 1.500000 0.000000
3.600000 1.500000 0.000000
3.700000 1.500000 0.000000
3.800000 1.500000 0.000000
3.900000 1.500000 0.000000
4.000000 1.500000 0.000000
0.000000 1.600000 0.000000
0.100000 1.600000 0.000000
0.200000 1.600000 0.000000
0.300000 1.600000 0.000000
0.400000 1.600000 0.000000
0.500000 1.600000 0.000000
0.600000 1.600000 0.000000
0.700000 1.600000 0.000000
0.800000 1.600000 0.000000
0.900000 1.600000 0.000000
1.000000 1.600000 0.000000
1.100000 1.600000 0.000000
1.200000 1.600000 0.000000
1.300000 1.600000 0.000000
1.400000 1.600000 0.000000
1.500000 1.600000 0.000000
1.600000 1.600000 0.000000
1.700000 1.600000 0.000000
1.800000 1.600000 0.000000
1.900000 1.600000 0.000000
2.000000 1.600000 0.000000
2.100000 1.600000 0.000000
2.200000 1.600000 0.000000
2.300000 1.600000 0.000000
2.400000 1.600000 0.000000
2.500000 1.600000 0.000000
2.600000 1.600000 0.000000
2.700000 1.600000 0.000000
2.800000 1.600000 0.000000
2.900000 1.600000 0.000000
3.000000 1.600000 0.000000
3.100000 1.600000 0.000000
3.200000 1.600000 0.000000
3.300000 1.600000 0.000000
3.400000 1.600000 0.000000
3.500000 1.600000 0.000000
3.600000 1.600000 0.000000
3.700000 1.600000 0.000000
3.800000 1.600000 0.000000
3.900000 1.600000 0.000000
4.000000 1.600000 0.000000
0.000000 1.700000 0.000000
0.100000 1.700000 0.000000
0.200000 1.700000 0.000000
0.300000 1.700000 0.000000
0.400000 1.700000 0.000000
0.500000 1.700000 0.000000
0.600000 1.700000 0.000000
0.700000 1.700000 0.000000
0.800000 1.700000 0.000000
0.900000 1.700000 0.000000
1.000000 1.700000 0.000000
1.100000 1.700000 0.000000
1.200000 1.700000 0.000000
1.300000 1.700000 0.000000
1.400000 1.700000 0.000000
1.500000 1.700000 0.000000
1.600000 1.700000 0.000000
1.700000 1.700000 0.000000
1.800000 1.700000 0.000000
1.900000 1.700000 0.000000
2.000000 1.700000 0.000000
2.100000 1.700000 0.000000
2.200000 1.700000 0.000000
2.300000 1.700000 0.000000
2.400000 1.700000 0.000000
2.500000 1.700000 0.000000
2.600000 1.700000 0.000000
2.700000 1.700000 0.000000
2.800000 1.700000 0.000000
2.900000 1.700000 0.000000
3.000000 1.700000 0.000000
3.100000 1.700000 0.000000
3.200000 1.700000 0.000000
3.300000 1.700000 0.000000
3.400000 1.700000 0.000000
3.500000 1.700000 0.000000
3.600000 1.700000 0.000000
3.700000 1.700000 0.000000
3.800000 1.700000 0.000000
3.900000 1.700000 0.000000
4.000000 1.700000 0.000000
0.000000 1.800000 0.000000
0.100000 1.800000 0.000000
0.200000 1.800000 0.000000
0.300000 1.800000 0.000000
0.400000 1.800000 0.000000
0.500000 1.800000 0.000000
0.600000 1.800000 0.000000
0.700000 1.800000 0.000000
0.800000 1.800000 0.000000
0.900000 1.800000 0.000000
1.000000 1.800000 0.000000
1.100000 1.800000 0.000000
1.200000 1.800000 0.000000
1.300000 1.800000 0.000000
1.400000 1.800000 0.000000
1.500000 1.800000 0.000000
1.600000 1.800000 0.000000
1.700000 1.800000 0.000000
1.800000 1.800000 0.000000
1.900000 1.800000 0.000000
2.000000 1.800000 0.000000
2.100000 1.800000 0.000000
2.200000 1.800000 0.000000
2.300000 1.800000 0.000000
2.400000 1.800000 0.000000
2.500000 1.800000 0.000000
2.600000 1.800000 0.000000
2.700000 1.800000 0.000000
2.800000 1.800000 0.000000
2.900000 1.800000 0.000000
3.000000 1.800000 0.000000
3.100000 1.800000 0.000000
3.200000 1.800000 0.000000
3.300000 1.800000 0.000000
3.400000 1.800000 0.000000
3.500000 1.800000 0.000000
3.600000 1.800000 0.000000
[...]
CELL_DATA 8000
SCALARS pressure float 1
LOOKUP_TABLE default
-33.2827
-24.8281
-21.1151
-19.3176
-18.3061
-17.6253
-17.0808
-16.5807
-16.0748
-15.5314
-14.9297
-14.2607
-13.5282
-12.7479
-11.9397
-11.1235
-10.319
-9.54692
-8.82809
-8.17822
-7.60154
-7.0908
-6.6322
-6.21069
-5.8132
-5.4299
-5.0541
-4.68164
-4.31015
-3.93843
-3.56598
-3.19266
-2.81854
-2.44375
-2.06843
-1.69272
-1.31673
-0.940557
-0.564284
-0.188014
-32.9737
-24.6884
-21.0478
-19.2821
-18.2849
-17.6099
-17.0669
-16.5662
-16.0589
-15.5143
-14.9127
-14.2453
-13.5163
-12.7407
-11.938
-11.1275
-10.3286
-9.56134
-8.84595
-8.19762
-7.62051
-7.10783
-6.64647
-6.22197
-5.82167
-5.43597
-5.05826
-4.68435
-4.31182
-3.93938
-3.56645
-3.19284
-2.81854
-2.44365
-2.0683
-1.69258
-1.31661
-0.940463
-0.564223
-0.18799
-32.3569
-24.41
-20.9135
-19.2111
-18.2415
-17.5776
-17.0372
-16.5348
-16.0245
-15.4775
-14.876
-14.2124
-13.4907
-12.725
-11.9335
-11.1347
-10.3472
-9.59003
-8.88203
-8.23716
-7.65947
-7.14309
-6.67626
-6.24576
-5.83981
-5.44926
-5.06765
-4.69076
-4.31604
-3.94206
-3.56808
-3.19376
-2.81902
-2.44387
-2.06836
-1.69256
-1.31656
-0.940404
-0.564176
-0.187966
-31.4432
-24.003
-20.7214
-19.1123
-18.1831
-17.5348
-16.9979
-16.4931
-15.9783
-15.428
-14.8265
-14.1679
-13.456
-12.7036
-11.9272
-11.1442
-10.3721
-9.62857
-8.93058
-8.29046
-7.71208
-7.19081
-6.71669
-6.27819
-5.86465
-5.46756
-5.08066
-4.69973
-4.32204
-3.94594
-3.5705
-3.19522
-2.81985
-2.4443
-2.06855
-1.69263
-1.31655
-0.940375
-0.564143
-0.187943
-30.2506
-23.4841
-20.486
-18.9981
-18.1201
-17.491
-16.9579
-16.4499
-15.9295
-15.3749
-14.7731
-14.1196
-13.4183
-12.6803
-11.9205
-11.1549
-10.3997
-9.67117
-8.9841
-8.34919
-7.77013
-7.24358
-6.76154
-6.31425
-5.89235
-5.48801
-5.09526
-4.70982
-4.32881
-3.95035
-3.57328
-3.1969
-2.82082
-2.44483
-2.06881
-1.69274
-1.31658
-0.940366
-0.564123
-0.187926
-28.8076
-22.8793
-20.2289
-18.8855
-18.066
-17.4571
-16.927
-16.4144
-15.8873
-15.3275
-14.7246
-14.0753
-13.3836
-12.659
-11.9148
-11.1656
-10.4265
-9.71202
-9.03515
-8.40512
-7.82547
-7.29401
-6.80451
-6.34888
-5.91899
-5.5077
-5.10931
-4.71953
-4.33532
-3.95459
-3.57595
-3.19852
-2.82177
-2.44535
-2.06908
-1.69285
-1.31662
-0.940369
-0.564115
-0.187918
-27.162
-22.2297
-19.9811
-18.7966
-18.0361
-17.4444
-16.914
-16.3944
-15.8592
-15.2931
-14.6877
-14.0409
-13.3563
-12.6424
-11.9109
-11.1753
-10.4494
-9.7464
-9.07781
-8.45174
-7.87161
-7.33613
-6.84046
-6.37789
-5.94132
-5.52419
-5.12105
-4.72763
-4.34073
-3.95809
-3.57814
-3.19985
-2.82253
-2.44576
-2.06928
-1.69294
-1.31665
-0.940376
-0.564118
-0.187923
-25.402
-21.6033
-19.7866
-18.7573
-18.0451
-17.4613
-16.9243
-16.3943
-15.8489
-15.2752
-14.666
-14.0194
-13.3389
-12.6319
-11.9091
-11.183
-10.4663
-9.77124
-9.10838
-8.48502
-7.9045
-7.36615
-6.86607
-6.39854
-5.95717
-5.53586
-5.12932
-4.73329
-4.34448
-3.9605
-3.57963
-3.20073
-2.82303
-2.44603
-2.06941
-1.69299
-1.31667
-0.940384
-0.564129
-0.18794
-23.7118
-21.115
-19.7014
-18.7895
-18.0988
-17.5072
-16.9556
-16.4114
-15.8547
-15.2729
-14.659
-14.0109
-13.3314
-12.6274
-11.909
-11.1877
-10.4758
-9.785
-9.12513
-8.50314
-7.92232
-7.38232
-6.87979
-6.40952
-5.96551
-5.54193
-5.13357
-4.73615
-4.34634
-3.96166
-3.58033
-3.20113
-2.82325
-2.44613
-2.06945
-1.69301
-1.31667
-0.940387
-0.564143
-0.187965
-22.5261
-20.9397
-19.7624
-18.88
-18.1723
-17.5591
-16.9901
-16.4336
-15.8684
-15.2809
-14.6633
-14.013
-13.3323
-12.628
-11.9095
-11.1885
-10.477
-9.78659
-9.12696
-8.505
-7.924
-7.38366
-6.88072
-6.41006
-5.96575
-5.54195
-5.13346
-4.73598
-4.34616
-3.96148
-3.58018
-3.20101
-2.82315
-2.44607
-2.06941
-1.69297
-1.31665
-0.940377
-0.564143
-0.187975
-26.4959
-23.55
-21.1859
-19.609
-18.5491
-17.778
-17.1539
-16.5929
-16.0441
-15.4739
-14.8609
-14.1942
-13.4756
-12.7173
-11.936
-11.1485
-10.3717
-9.62337
-8.92147
-8.27993
-7.70252
-7.1835
-6.7119
-6.27556
-5.86367
-5.46771
-5.08154
-4.70103
-4.32354
-3.9475
-3.57201
-3.19662
-2.8211
-2.44539
-2.06947
-1.69338
-1.31716
-0.940851
-0.564489
-0.188126
-26.3226
-23.4362
-21.1178
-19.5687
-18.5242
-17.7609
-17.1401
-16.5799
-16.0307
-15.46
-14.8471
-14.1819
-13.466
-12.7115
-11.9345
-11.1515
-10.3791
-9.63469
-8.9356
-8.29533
-7.71762
-7.1971
-6.72332
-6.28462
-5.8705
-5.47263
-5.08492
-4.70323
-4.32489
-3.94825
-3.57237
-3.19672
-2.82106
-2.44527
-2.06933
-1.69324
-1.31704
-0.940755
-0.564427
-0.1881
-25.9772
-23.2097
-20.9822
-19.488
-18.4735
-17.7251
-17.1104
-16.5515
-16.0012
-15.4295
-14.8171
-14.1551
-13.4451
-12.6985
-11.9305
-11.1569
-10.3936
-9.65743
-8.96441
-8.32701
-7.74889
-7.22548
-6.74741
-6.30399
-5.88538
-5.48361
-5.09274
-4.70861
-4.32845
-3.95052
-3.57374
-3.1975
-2.82146
-2.44544
-2.06936
-1.69321
-1.31698
-0.940692
-0.564377
-0.18807
-25.4707
-22.8805
-20.7881
-19.3747
-18.4039
-17.6768
-17.0707
-16.5134
-15.9617
-15.3883
-14.7765
-14.1187
-13.4168
-12.681
-11.925
-11.164
-10.4131
-9.68795
-9.00313
-8.36964
-7.79105
-7.26383
-6.78006
-6.33034
-5.90572
-5.49872
-5.10358
-4.71614
-4.33352
-3.95382
-3.57581
-3.19874
-2.82216
-2.4458
-2.06952
-1.69325
-1.31697
-0.940655
-0.564338
-0.188039
-24.8209
-22.4654
-20.5498
-19.2406
-18.3251
-17.6246
-17.0288
-16.4734
-15.9198
-15.3444
-14.7329
-14.0795
-13.3862
-12.6619
-11.9192
-11.172
-10.4346
-9.72141
-9.04545
-8.4162
-7.83715
-7.30585
-6.81593
-6.35935
-5.92815
-5.5154
-5.11557
-4.72448
-4.33915
-3.9575
-3.57814
-3.20015
-2.82297
-2.44623
-2.06972
-1.69333
-1.31697
-0.940634
-0.564308
-0.188011
-24.0554
-21.9894
-20.2882
-19.1021
-18.2499
-17.5785
-16.9934
-16.4395
-15.8836
-15.3057
-14.694
-14.0442
-13.3585
-12.6447
-11.9142
-11.1798
-10.455
-9.75285
-9.08495
-8.45958
-7.88014
-7.34511
-6.84948
-6.3865
-5.94912
-5.53097
-5.12672
-4.73222
-4.34435
-3.96088
-3.58026
-3.20143
-2.8237
-2.44662
-2.0699
-1.69339
-1.31698
-0.940615
-0.564285
-0.187991
-23.2175
-21.4906
-20.0321
-18.9796
-18.1924
-17.5488
-16.9727
-16.4188
-15.8597
-15.2786
-14.6658
-14.0181
-13.3378
-12.6319
-11.9108
-11.1865
-10.4715
-9.77797
-9.11628
-8.49389
-7.91409
-7.37608
-6.87589
-6.40779
-5.96549
-5.54303
-5.13528
-4.73808
-4.34823
-3.96335
-3.58177
-3.20231
-2.82418
-2.44685
-2.07
-1.69341
-1.31696
-0.94059
-0.564265
-0.187982
-22.3804
-21.0272
-19.8205
-18.8967
-18.1662
-17.5435
-16.9718
-16.4156
-15.8521
-15.267
-14.652
-14.0044
-13.3265
-12.625
-11.9094
-11.191
-10.4819
-9.79352
-9.13549
-8.51476
-7.9346
-7.39462
-6.89151
-6.42018
-5.97481
-5.54973
-5.13988
-4.74111
-4.35013
-3.96449
-3.58241
-3.20263
-2.8243
-2.44687
-2.06997
-1.69336
-1.31691
-0.940551
-0.564244
-0.187982
-21.6739
-20.6877
-19.7011
-18.8744
-18.1787
-17.5642
-16.9908
-16.4298
-15.8613
-15.2719
-14.6539
-14.0045
-13.3259
-12.6245
-11.9096
-11.1923
-10.4843
-9.79695
-9.13961
-8.51904
-7.9385
-7.39775
-6.89371
-6.42149
-5.97539
-5.54979
-5.13962
-4.74069
-4.34965
-3.96403
-3.58199
-3.20228
-2.82403
-2.44666
-2.0698
-1.69324
-1.31683
-0.940495
-0.564216
-0.187987
-21.3231
-20.5964
-19.7202
-18.9206
-18.2237
-17.602
-17.022
-16.4562
-15.8843
-15.2922
-14.6713
-14.0187
-13.3363
-12.6305
-11.9109
-11.1889
-10.4767
-9.78566
-9.12568
-8.50362
-7.92278
-7.38275
-6.88019
-6.40988
-5.96584
-5.54222
-5.13382
-4.73637
-4.34652
-3.96181
-3.58045
-3.20124
-2.82333
-2.4462
-2.06951
-1.69305
-1.31671
-0.940416
-0.564165
-0.18797
-22.7806
-21.8037
-20.5315
-19.4177
-18.5239
-17.7984
-17.1771
-16.6078
-16.0514
-15.478
-14.8648
-14.198
-13.4775
-12.72
-11.9438
-11.1627
-10.3903
-9.64272
-8.93937
-8.29951
-7.72628
-7.21095
-6.74063
-6.30298
-5.88792
-5.48791
-5.09758
-4.71328
-4.3326
-3.95403
-3.57662
-3.19981
-2.82328
-2.44686
-2.07046
-1.69405
-1.31761
-0.94115
-0.564679
-0.188212
-22.6807
-21.7247
-20.4767
-19.3815
-18.4998
-17.7812
-17.1631
-16.5947
-16.0378
-15.4636
-14.8504
-14.1849
-13.4673
-12.7137
-11.9417
-11.165
-10.3971
-9.65366
-8.95351
-8.31503
-7.74131
-7.22419
-6.7515
-6.31141
-5.89416
-5.49232
-5.10055
-4.71518
-4.33374
-3.95463
-3.57687
-3.19985
-2.8232
-2.44672
-2.0703
-1.6939
-1.31748
-0.941049
-0.564613
-0.188182
-22.4822
-21.5675
-20.3673
-19.3088
-18.4506
-17.7452
-17.1331
-16.5659
-16.0078
-15.4319
-14.8186
-14.1562
-13.4452
-12.7
-11.9369
-11.1693
-10.4106
-9.67595
-8.9828
-8.34735
-7.7727
-7.25199
-6.77453
-6.32954
-5.90784
-5.50227
-5.10756
-4.71994
-4.33686
-3.9566
-3.57805
-3.2005
-2.82351
-2.44683
-2.0703
-1.69384
-1.3174
-0.940976
-0.564555
-0.188143
-22.1959
-21.342
-20.212
-19.2069
-18.3828
-17.6963
-17.0926
-16.5272
-15.9675
-15.3893
-14.7756
-14.1173
-13.4153
-12.6814
-11.9302
-11.1748
-10.4285
-9.70582
-9.02211
-8.39066
-7.81471
-7.28926
-6.80549
-6.35399
-5.92638
-5.51584
-5.11718
-4.72656
-4.34127
-3.95944
-3.5798
-3.20153
-2.82407
-2.4471
-2.0704
-1.69384
-1.31737
-0.940923
-0.564504
-0.1881
-21.8387
-21.0636
-20.0239
-19.0869
-18.3055
-17.6424
-17.0491
-16.4863
-15.9249
-15.3442
-14.7303
-14.0762
-13.3834
-12.6615
-11.9231
-11.181
-10.4481
-9.73796
-9.06397
-8.43673
-7.85955
-7.32918
-6.83876
-6.38032
-5.94636
-5.53048
-5.12755
-4.73368
-4.34601
-3.9625
-3.5817
-3.20265
-2.82469
-2.44741
-2.07052
-1.69387
-1.31734
-0.940878
-0.564458
-0.188058
-21.4354
-20.7545
-19.8217
-18.9634
-18.2305
-17.5933
-17.0113
-16.4513
-15.8884
-15.3055
-14.6911
-14.0405
-13.3555
-12.644
-11.9171
-11.1869
-10.466
-9.76693
-9.10124
-8.47767
-7.89952
-7.36488
-6.86854
-6.40387
-5.96417
-5.54344
-5.13666
-4.73987
-4.35008
-3.96508
-3.58327
-3.20355
-2.82517
-2.44763
-2.07059
-1.69386
-1.3173
-0.940828
-0.564413
-0.188024
-21.0219
-20.4459
-19.6297
-18.8545
-18.1707
-17.5586
-16.9872
-16.4294
-15.8651
-15.2798
-14.6646
-14.0159
-13.336
-12.6316
-11.913
-11.1916
-10.4794
-9.78818
-9.12827
-8.50724
-7.92831
-7.3905
-6.88976
-6.42045
-5.9765
-5.5522
-5.14264
-4.7438
-4.35255
-3.96655
-3.58408
-3.20395
-2.82533
-2.44765
-2.07054
-1.69378
-1.31722
-0.940763
-0.564367
-0.188002
-20.6504
-20.1803
-19.4783
-18.7801
-18.1387
-17.5467
-16.9827
-16.426
-15.8598
-15.2719
-14.6549
-14.0062
-13.3278
-12.6264
-11.9114
-11.1939
-10.4857
-9.79816
-9.14087
-8.52081
-7.9412
-7.40154
-6.8984
-6.42669
-5.98067
-5.55477
-5.14405
-4.74444
-4.35271
-3.96644
-3.58385
-3.20368
-2.82506
-2.44741
-2.07034
-1.69362
-1.3171
-0.940675
-0.564317
-0.187992
-20.3951
-20.0135
-19.4027
-18.7594
-18.1443
-17.5624
-17.0008
-16.4431
-15.8747
-15.2842
-14.6645
-14.0133
-13.3326
-12.6291
-11.912
-11.1926
-10.4828
-9.79391
-9.13562
-8.51476
-7.93454
-7.39454
-6.89145
-6.42013
-5.97478
-5.54972
-5.13989
-4.74112
-4.35015
-3.96451
-3.58242
-3.20264
-2.82432
-2.44689
-2.06998
-1.69337
-1.31693
-0.940564
-0.564255
-0.187987
-20.3381
-20.0089
-19.4383
-18.8073
-18.1915
-17.6056
-17.0405
-16.4805
-15.9103
-15.3177
-14.6948
-14.0386
-13.3514
-12.64
-11.9142
-11.1861
-10.4682
-9.77246
-9.10919
-8.48562
-7.90501
-7.36661
-6.86651
-6.39895
-5.95755
-5.53621
-5.12965
-4.73357
-4.34473
-3.9607
-3.57981
-3.20088
-2.82315
-2.44613
-2.06949
-1.69306
-1.31673
-0.94043
-0.564166
-0.187954
-20.7354
-20.4343
-19.7718
-19.0384
-18.3496
-17.728
-17.1603
-16.6231
-16.0916
-15.5403
-14.943
-14.2757
-13.5333
-12.7535
-11.9633
-11.1696
-10.3803
-9.60854
-8.87926
-8.23443
-7.67304
-7.17523
-6.72081
-6.29473
-5.88685
-5.49063
-5.10185
-4.71779
-4.33669
-3.95742
-3.57929
-3.20183
-2.82478
-2.44795
-2.07124
-1.6946
-1.31799
-0.941416
-0.564852
-0.188302
-20.6749
-20.3819
-19.7317
-19.0094
-18.3287
-17.7118
-17.146
-16.6085
-16.0753
-15.522
-14.9236
-14.2578
-13.5197
-12.745
-11.96
-11.1714
-10.3876
-9.62151
-8.89727
-8.25442
-7.69192
-7.1912
-6.73335
-6.30404
-5.89347
-5.49515
-5.1048
-4.71961
-4.33773
-3.95795
-3.57948
-3.20183
-2.82466
-2.44778
-2.07106
-1.69443
-1.31785
-0.941308
-0.564781
-0.188268
-20.5548
-20.2776
-19.6514
-18.9508
-18.2855
-17.6776
-17.1151
-16.5766
-16.0395
-15.4815
-14.8807
-14.2181
-13.4902
-12.7272
-11.9527
-11.1747
-10.4023
-9.64868
-8.93589
-8.29708
-7.73182
-7.22485
-6.75987
-6.32399
-5.90794
-5.50532
-5.11175
-4.72421
-4.34067
-3.95975
-3.58052
-3.20237
-2.8249
-2.44784
-2.07102
-1.69435
-1.31776
-0.941222
-0.564713
-0.188219
-20.3859
-20.1306
-19.5388
-18.8694
-18.2262
-17.631
-17.0733
-16.5336
-15.9913
-15.4268
-14.8222
-14.1635
-13.4501
-12.7033
-11.9428
-11.1789
-10.4218
-9.68526
-8.98838
-8.35442
-7.78502
-7.26957
-6.79514
-6.35058
-5.92731
-5.51901
-5.12116
-4.73051
-4.34476
-3.96231
-3.58206
-3.20324
-2.82534
-2.44802
-2.07106
-1.69431
-1.31769
-0.94115
-0.564647
-0.188163
-20.1842
-19.9549
-19.4058
-18.775
-18.1594
-17.5801
-17.0287
-16.4882
-15.9409
-15.3702
-14.7621
-14.1077
-13.4081
-12.6778
-11.9325
-11.1838
-10.4431
-9.72394
-9.04212
-8.41322
-7.84006
-7.31621
-6.83213
-6.37854
-5.94767
-5.53338
-5.13101
-4.73706
-4.34899
-3.96495
-3.58363
-3.20412
-2.82579
-2.44821
-2.0711
-1.69428
-1.31763
-0.941078
-0.564582
-0.188107
-19.9713
-19.7692
-19.268
-18.6806
-18.0955
-17.5339
-16.99
-16.4498
-15.8986
-15.3228
-14.7123
-14.0614
-13.3724
-12.6555
-11.9236
-11.1885
-10.4622
-9.75733
-9.08712
-8.46251
-7.88665
-7.35602
-6.86379
-6.40241
-5.96491
-5.54539
-5.13908
-4.74231
-4.35227
-3.96691
-3.58474
-3.20469
-2.82603
-2.44826
-2.07106
-1.69419
-1.31754
-0.940993
-0.564514
-0.188059
-19.7751
-19.5971
-19.1444
-18.601
-18.0463
-17.502
-16.9656
-16.4264
-15.8724
-15.2929
-14.6803
-14.0314
-13.3487
-12.6404
-11.9175
-11.1919
-10.4753
-9.77992
-9.11702
-8.49513
-7.91746
-7.38217
-6.88426
-6.41743
-5.97533
-5.55226
-5.14338
-4.74483
-4.35364
-3.96755
-3.58494
-3.20466
-2.82588
-2.44807
-2.07087
-1.69402
-1.31739
-0.940885
-0.564442
-0.188023
-19.6297
-19.4666
-19.0566
-18.5517
-18.0228
-17.4927
-16.9623
-16.424
-15.868
-15.2857
-14.6708
-14.0214
-13.3402
-12.6347
-11.9149
-11.1926
-10.4796
-9.7879
-9.1277
-8.50652
-7.92756
-7.38978
-6.88912
-6.41989
-5.97602
-5.55181
-5.14232
-4.74354
-4.35235
-3.96638
-3.58395
-3.20385
-2.82525
-2.44759
-2.0705
-1.69375
-1.3172
-0.94075
-0.564363
-0.188002
-19.5698
-19.4066
-19.0263
-18.5476
-18.0345
-17.5121
-16.9846
-16.4465
-15.8891
-15.3043
-14.6864
-14.0336
-13.3489
-12.6395
-11.9156
-11.1892
-10.4727
-9.77815
-9.11588
-8.49319
-7.91329
-7.37531
-6.8752
-6.4072
-5.965
-5.54264
-5.13498
-4.73785
-4.34805
-3.96322
-3.58167
-3.20223
-2.82412
-2.44681
-2.06997
-1.69339
-1.31696
-0.940591
-0.564271
-0.187986
-19.6047
-19.4386
-19.0727
-18.6005
-18.0877
-17.5637
-17.0348
-16.4958
-15.9377
-15.351
-14.7291
-14.0697
-13.3759
-12.6552
-11.919
-11.1801
-10.4519
-9.74752
-9.07815
-8.4517
-7.87144
-7.33595
-6.84033
-6.37782
-5.9413
-5.52423
-5.12112
-4.72771
-4.34082
-3.95818
-3.57822
-3.19992
-2.8226
-2.44582
-2.06934
-1.69299
-1.3167
-0.940416
-0.564153
-0.187939
-19.5649
-19.4835
-19.1256
-18.6433
-18.1275
-17.6185
-17.1269
-16.6486
-16.171
-15.6728
-15.1183
-14.4547
-13.6472
-12.8109
-11.9937
-11.1731
-10.3473
-9.51976
-8.71508
-8.06199
-7.53196
-7.0742
-6.65431
-6.25368
-5.86298
-5.47766
-5.09544
-4.71511
-4.336
-3.9577
-3.57995
-3.20259
-2.82548
-2.44854
-2.07172
-1.69497
-1.31828
-0.941625
-0.565002
-0.188402
-19.5256
-19.4488
-19.0974
-18.6213
-18.1102
-17.6035
-17.1118
-16.6311
-16.1494
-15.6464
-15.0889
-14.4273
-13.6274
-12.7991
-11.9883
-11.1743
-10.3558
-9.53662
-8.74182
-8.09219
-7.55952
-7.09637
-6.67083
-6.26536
-5.87092
-5.48286
-5.09872
-4.71707
-4.33709
-3.95822
-3.58012
-3.20255
-2.82534
-2.44835
-2.07152
-1.69479
-1.31813
-0.941511
-0.564926
-0.188364
-19.4481
-19.3795
-19.0405
-18.5764
-18.0738
-17.5712
-17.0787
-16.5926
-16.1014
-15.5869
-15.0207
-14.3625
-13.5838
-12.7749
-11.9773
-11.1766
-10.3736
-9.57432
-8.80377
-8.15984
-7.61922
-7.14347
-6.70569
-6.29016
-5.88806
-5.49442
-5.10632
-4.72194
-4.3401
-3.96001
-3.58112
-3.20305
-2.82553
-2.44837
-2.07145
-1.69468
-1.31802
-0.941412
-0.564848
-0.188306
-19.3427
-19.2842
-18.9622
-18.5147
-18.0242
-17.5275
-17.0342
-16.5408
-16.0367
-15.5055
-14.9249
-14.2678
-13.523
-12.7435
-11.9622
-11.1781
-10.3959
-9.6259
-8.89284
-8.25335
-7.69946
-7.20594
-6.75175
-6.32292
-5.91075
-5.50978
-5.11648
-4.7285
-4.34421
-3.9625
-3.58255
-3.20381
-2.82588
-2.44849
-2.07144
-1.69461
-1.31792
-0.94132
-0.564767
-0.188237
-19.2246
-19.1754
-18.8728
-18.4452
-17.9695
-17.4804
-16.9872
-16.4869
-15.9701
-15.4234
-14.8306
-14.1766
-13.4598
-12.7087
-11.9466
-11.1816
-10.422
-9.6806
-8.97822
-8.34459
-7.77971
-7.26952
-6.79909
-6.35675
-5.93418
-5.52557
-5.12685
-4.73512
-4.34831
-3.96494
-3.58393
-3.20452
-2.8262
-2.44857
-2.0714
-1.69452
-1.31782
-0.941221
-0.564682
-0.188167
-19.1126
-19.0685
-18.7852
-18.3787
-17.9194
-17.4391
-16.9474
-16.442
-15.9154
-15.3571
-14.7565
-14.1059
-13.4076
-12.6777
-11.9333
-11.1856
-10.4455
-9.72637
-9.0444
-8.41624
-7.84443
-7.32182
-6.83838
-6.38477
-5.95336
-5.53824
-5.13492
-4.74007
-4.35121
-3.96653
-3.58471
-3.20484
-2.82624
-2.44849
-2.07126
-1.69437
-1.31768
-0.941102
-0.564592
-0.188104
-19.0279
-18.9809
-18.7137
-18.3273
-17.8838
-17.4127
-16.9235
-16.4153
-15.8822
-15.3163
-14.7107
-14.0621
-13.3737
-12.6566
-11.924
-11.1882
-10.4612
-9.75593
-9.08554
-8.46089
-7.8851
-7.35459
-6.86252
-6.40131
-5.96397
-5.5446
-5.13843
-4.74177
-4.35184
-3.96656
-3.58445
-3.20446
-2.82585
-2.44812
-2.07095
-1.69411
-1.31748
-0.940955
-0.564494
-0.188054
-18.9911
-18.9293
-18.6724
-18.3023
-17.8722
-17.4091
-16.9229
-16.4137
-15.8767
-15.306
-14.6967
-14.0473
-13.3616
-12.6485
-11.9197
-11.1878
-10.4655
-9.76542
-9.09919
-8.4754
-7.89724
-7.36275
-6.86663
-6.40221
-5.96276
-5.54226
-5.13568
-4.73908
-4.34945
-3.96457
-3.58286
-3.20322
-2.82491
-2.44743
-2.07044
-1.69375
-1.31722
-0.940779
-0.564388
-0.188019
-19.013
-18.9248
-18.6723
-18.3133
-17.8921
-17.4345
-16.9508
-16.4417
-15.9032
-15.3295
-14.7163
-14.0627
-13.3726
-12.6545
-11.9202
-11.1827
-10.4556
-9.75192
-9.08312
-8.45734
-7.87782
-7.34292
-6.84752
-6.3848
-5.9477
-5.52981
-5.12578
-4.73147
-4.34375
-3.96041
-3.57988
-3.20113
-2.82347
-2.44644
-2.06977
-1.6933
-1.31692
-0.940581
-0.564272
-0.187991
-19.07
-18.966
-18.7202
-18.3673
-17.9491
-17.4928
-17.0103
-16.5024
-15.9644
-15.3894
-14.7717
-14.1098
-13.4078
-12.6751
-11.9247
-11.1709
-10.4286
-9.71204
-9.03402
-8.40348
-7.82373
-7.29238
-6.8031
-6.34772
-5.91806
-5.50698
-5.10876
-4.71912
-4.33502
-3.95436
-3.57578
-3.1984
-2.82167
-2.44528
-2.06903
-1.69283
-1.31661
-0.940378
-0.564134
-0.187931
-18.8708
-18.8498
-18.6369
-18.3066
-17.9183
-17.5089
-17.0983
-16.6952
-16.2994
-15.8978
-15.4438
-14.8156
-13.8131
-12.8625
-12.0329
-11.1791
-10.3066
-9.38901
-8.36639
-7.72859
-7.28326
-6.90582
-6.54552
-6.18538
-5.82109
-5.45255
-5.08078
-4.70684
-4.33153
-3.95544
-3.57893
-3.20223
-2.82546
-2.44867
-2.0719
-1.69516
-1.31845
-0.94177
-0.565125
-0.18851
-18.8433
-18.8261
-18.6172
-18.2902
-17.9039
-17.4946
-17.0815
-16.6732
-16.2694
-15.8583
-15.3979
-14.7741
-13.7886
-12.8486
-12.0258
-11.1802
-10.3154
-9.40717
-8.40773
-7.77681
-7.32557
-6.93807
-6.56831
-6.20077
-5.83113
-5.45891
-5.08467
-4.70911
-4.33276
-3.95601
-3.57912
-3.20219
-2.82531
-2.44847
-2.07169
-1.69497
-1.31829
-0.941651
-0.565045
-0.188467
-18.7889
-18.7785
-18.5768
-18.2559
-17.873
-17.4632
-17.0445
-16.6243
-16.2015
-15.7653
-15.2814
-14.6591
-13.7263
-12.8194
-12.0094
-11.1815
-10.337
-9.45853
-8.51977
-7.89465
-7.42125
-7.00778
-6.61656
-6.23323
-5.85255
-5.4728
-5.09351
-4.71459
-4.33606
-3.95791
-3.58014
-3.20268
-2.82547
-2.44846
-2.0716
-1.69484
-1.31816
-0.94154
-0.564957
-0.188401
-18.718
-18.7151
-18.5223
-18.2096
-17.8314
-17.4209
-16.9948
-16.5585
-16.109
-15.6339
-15.1033
-14.4584
-13.635
-12.7905
-11.9863
-11.1748
-10.3555
-9.52836
-8.70948
-8.07011
-7.55354
-7.10096
-6.68023
-6.27591
-5.88072
-5.4911
-5.10518
-4.72188
-4.34049
-3.96051
-3.58158
-3.20341
-2.82578
-2.44853
-2.07155
-1.69474
-1.31805
-0.94143
-0.564862
-0.188321
-18.6449
-18.6471
-18.4631
-18.1592
-17.7867
-17.3764
-16.943
-16.4908
-16.0158
-15.5063
-14.9412
-14.2901
-13.5375
-12.7491
-11.964
-11.1753
-10.3873
-9.60961
-8.86687
-8.2279
-7.68019
-7.19349
-6.74468
-6.31949
-5.90951
-5.50972
-5.11695
-4.72912
-4.3448
-3.96297
-3.58289
-3.20403
-2.82601
-2.44855
-2.07146
-1.69461
-1.31791
-0.941307
-0.564759
-0.188237
-18.5863
-18.5873
-18.4097
-18.1143
-17.748
-17.3389
-16.9002
-16.4355
-15.9411
-15.4081
-14.8233
-14.1737
-13.4587
-12.7078
-11.9451
-11.179
-10.4186
-9.67706
-8.97496
-8.34168
-7.77713
-7.26724
-6.79711