# vtk DataFile Version 2.0
I need something to put here
ASCII

DATASET STRUCTURED_GRID
DIMENSIONS 41 11 21
POINTS 9471 float
0.000000 0.000000 0.000000
0.100000 0.000000 0.000000
0.200000 0.000000 0.000000
0.300000 0.000000 0.000000
0.400000 0.000000 0.000000
0.500000 0.000000 0.000000
0.600000 0.000000 0.000000
0.700000 0.000000 0.000000
0.800000 0.000000 0.000000
0.900000 0.000000 0.000000
1.000000 0.000000 0.000000
1.100000 0.000000 0.000000
1.200000 0.000000 0.000000
1.300000 0.000000 0.000000
1.400000 0.000000 0.000000
1.500000 0.000000 0.000000
1.600000 0.000000 0.000000
1.700000 0.000000 0.000000
1.800000 0.000000 0.000000
1.900000 0.000000 0.000000
2.000000 0.000000 0.000000
2.100000 0.000000 0.000000
2.200000 0.000000 0.000000
2.300000 0.000000 0.000000
2.400000 0.000000 0.000000
2.500000 0.000000 0.000000
2.600000 0.000000 0.000000
2.700000 0.000000 0.000000
2.800000 0.000000 0.000000
2.900000 0.000000 0.000000
3.000000 0.000000 0.000000
3.100000 0.000000 0.000000
3.200000 0.000000 0.000000
3.300000 0.000000 0.000000
3.400000 0.000000 0.000000
3.500000 0.000000 0.000000
3.600000 0.000000 0.000000
3.700000 0.000000 0.000000
3.800000 0.000000 0.000000
3.900000 0.000000 0.000000
4.000000 0.000000 0.000000
0.000000 0.100000 0.000000
0.100000 0.100000 0.000000
0.200000 0.100000 0.000000
0.300000 0.100000 0.000000
0.400000 0.100000 0.000000
0.500000 0.100000 0.000000
0.600000 0.100000 0.000000
0.700000 0.100000 0.000000
0.800000 0.100000 0.000000
0.900000 0.100000 0.000000
1.000000 0.100000 0.000000
1.100000 0.100000 0.000000
1.200000 0.100000 0.000000
1.300000 0.100000 0.000000
1.400000 0.100000 0.000000
1.500000 0.100000 0.000000
1.600000 0.100000 0.000000
1.700000 0.100000 0.000000
1.800000 0.100000 0.000000
1.900000 0.100000 0.000000
2.000000 0.100000 0.000000
2.100000 0.100000 0.000000
2.200000 0.100000 0.000000
2.300000 0.100000 0.000000
2.400000 0.100000 0.000000
2.500000 0.100000 0.000000
2.600000 0.100000 0.000000
2.700000 0.100000 0.000000
2.800000 0.100000 0.000000
2.900000 0.100000 0.000000
3.000000 0.100000 0.000000
3.100000 0.100000 0.000000
3.200000 0.100000 0.000000
3.300000 0.100000 0.000000
3.400000 0.100000 0.000000
3.500000 0.100000 0.000000
3.600000 0.100000 0.000000
3.700000 0.100000 0.000000
3.800000 0.100000 0.000000
3.900000 0.100000 0.000000
4.000000 0.100000 0.000000
0.000000 0.200000 0.000000
0.100000 0.200000 0.000000
0.200000 0.200000 0.000000
0.300000 0.200000 0.000000
0.400000 0.200000 0.000000
0.500000 0.200000 0.000000
0.600000 0.200000 0.000000
0.700000 0.200000 0.000000
0.800000 0.200000 0.000000
0.900000 0.200000 0.000000
1.000000 0.200000 0.000000
1.100000 0.200000 0.000000
1.200000 0.200000 0.000000
1.300000 0.200000 0.000000
1.400000 0.200000 0.000000
1.500000 0.200000 0.000000
1.600000 0.200000 0.000000
1.700000 0.200000 0.000000
1.800000 0.200000 0.000000
1.900000 0.200000 0.000000
2.000000 0.200000 0.000000
2.100000 0.200000 0.000000
2.200000 0.200000 0.000000
2.300000 0.200000 0.000000
2.400000 0.200000 0.000000
2.500000 0.200000 0.000000
2.600000 0.200000 0.000000
2.700000 0.200000 0.000000
2.800000 0.200000 0.000000
2.900000 0.200000 0.000000
3.000000 0.200000 0.000000
3.100000 0.200000 0.000000
3.200000 0.200000 0.000000
3.300000 0.200000 0.000000
3.400000 0.200000 0.000000
3.500000 0.200000 0.000000
3.600000 0.200000 0.000000
3.700000 0.200000 0.000000
3.800000 0.200000 0.000000
3.900000 0.200000 0.000000
4.000000 0.200000 0.000000
0.000000 0.300000 0.000000
0.100000 0.300000 0.000000
0.200000 0.300000 0.000000
0.300000 0.300000 0.000000
0.400000 0.300000 0.000000
0.500000 0.300000 0.000000
0.600000 0.300000 0.000000
0.700000 0.300000 0.000000
0.800000 0.300000 0.000000
0.900000 0.300000 0.000000
1.000000 0.300000 0.000000
1.100000 0.300000 0.000000
1.200000 0.300000 0.000000
1.300000 0.300000 0.000000
1.400000 0.300000 0.000000
1.500000 0.300000 0.000000
1.600000 0.300000 0.000000
1.700000 0.300000 0.000000
1.800000 0.300000 0.000000
1.900000 0.300000 0.000000
2.000000 0.300000 0.000000
2.100000 0.300000 0.000000
2.200000 0.300000 0.000000
2.300000 0.300000 0.000000
2.400000 0.300000 0.000000
2.500000 0.300000 0.000000
2.600000 0.300000 0.000000
2.700000 0.300000 0.000000
2.800000 0.300000 0.000000
2.900000 0.300000 0.000000
3.000000 0.300000 0.000000
3.100000 0.300000 0.000000
3.200000 0.300000 0.000000
3.300000 0.300000 0.000000
3.400000 0.300000 0.000000
3.500000 0.300000 0.000000
3.600000 0.300000 0.000000
3.700000 0.300000 0.000000
3.800000 0.300000 0.000000
3.900000 0.300000 0.000000
4.000000 0.300000 0.000000
0.000000 0.400000 0.000000
0.100000 0.400000 0.000000
0.200000 0.400000 0.000000
0.300000 0.400000 0.000000
0.400000 0.400000 0.000000
0.500000 0.400000 0.000000
0.600000 0.400000 0.000000
0.700000 0.400000 0.000000
0.800000 0.400000 0.000000
0.900000 0.400000 0.000000
1.000000 0.400000 0.000000
1.100000 0.400000 0.000000
1.200000 0.400000 0.000000
1.300000 0.400000 0.000000
1.400000 0.400000 0.000000
1.500000 0.400000 0.000000
1.600000 0.400000 0.000000
1.700000 0.400000 0.000000
1.800000 0.400000 0.000000
1.900000 0.400000 0.000000
2.000000 0.400000 0.000000
2.100000 0.400000 0.000000
2.200000 0.400000 0.000000
2.300000 0.400000 0.000000
2.400000 0.400000 0.000000
2.500000 0.400000 0.000000
2.600000 0.400000 0.000000
2.700000 0.400000 0.000000
2.800000 0.400000 0.000000
2.900000 0.400000 0.000000
3.000000 0.400000 0.000000
3.100000 0.400000 0.000000
3.200000 0.400000 0.000000
3.300000 0.400000 0.000000
3.400000 0.400000 0.000000
3.500000 0.400000 0.000000
3.600000 0.400000 0.000000
3.700000 0.400000 0.000000
3.800000 0.400000 0.000000
3.900000 0.400000 0.000000
4.000000 0.400000 0.000000
0.000000 0.500000 0.000000
0.100000 0.500000 0.000000
0.200000 0.500000 0.000000
0.300000 0.500000 0.000000
0.400000 0.500000 0.000000
0.500000 0.500000 0.000000
0.600000 0.500000 0.000000
0.700000 0.500000 0.000000
0.800000 0.500000 0.000000
0.900000 0.500000 0.000000
1.000000 0.500000 0.000000
1.100000 0.500000 0.000000
1.200000 0.500000 0.000000
1.300000 0.500000 0.000000
1.400000 0.500000 0.000000
1.500000 0.500000 0.000000
1.600000 0.500000 0.000000
1.700000 0.500000 0.000000
1.800000 0.500000 0.000000
1.900000 0.500000 0.000000
2.000000 0.500000 0.000000
2.100000 0.500000 0.000000
2.200000 0.500000 0.000000
2.300000 0.500000 0.000000
2.400000 0.500000 0.000000
2.500000 0.500000 0.000000
2.600000 0.500000 0.000000
2.700000 0.500000 0.000000
2.800000 0.500000 0.000000
2.900000 0.500000 0.000000
3.000000 0.500000 0.000000
3.100000 0.500000 0.000000
3.200000 0.500000 0.000000
3.300000 0.500000 0.000000
3.400000 0.500000 0.000000
3.500000 0.500000 0.000000
3.600000 0.500000 0.000000
3.700000 0.500000 0.000000
3.800000 0.500000 0.000000
3.900000 0.500000 0.000000
4.000000 0.500000 0.000000
0.000000 0.600000 0.000000
0.100000 0.600000 0.000000
0.200000 0.600000 0.000000
0.300000 0.600000 0.000000
0.400000 0.600000 0.000000
0.500000 0.600000 0.000000
0.600000 0.600000 0.000000
0.700000 0.600000 0.000000
0.800000 0.600000 0.000000
0.900000 0.600000 0.000000
1.000000 0.600000 0.000000
1.100000 0.600000 0.000000
1.200000 0.600000 0.000000
1.300000 0.600000 0.000000
1.400000 0.600000 0.000000
1.500000 0.600000 0.000000
1.600000 0.600000 0.000000
1.700000 0.600000 0.000000
1.800000 0.600000 0.000000
1.900000 0.600000 0.000000
2.000000 0.600000 0.000000
2.100000 0.600000 0.000000
2.200000 0.600000 0.000000
2.300000 0.600000 0.000000
2.400000 0.600000 0.000000
2.500000 0.600000 0.000000
2.600000 0.600000 0.000000
2.700000 0.600000 0.000000
2.800000 0.600000 0.000000
2.900000 0.600000 0.000000
3.000000 0.600000 0.000000
3.100000 0.600000 0.000000
3.200000 0.600000 0.000000
3.300000 0.600000 0.000000
3.400000 0.600000 0.000000
3.500000 0.600000 0.000000
3.600000 0.600000 0.000000
3.700000 0.600000 0.000000
3.800000 0.600000 0.000000
3.900000 0.600000 0.000000
4.000000 0.600000 0.000000
0.000000 0.700000 0.000000
0.100000 0.700000 0.000000
0.200000 0.700000 0.000000
0.300000 0.700000 0.000000
0.400000 0.700000 0.000000
0.500000 0.700000 0.000000
0.600000 0.700000 0.000000
0.700000 0.700000 0.000000
0.800000 0.700000 0.000000
0.900000 0.700000 0.000000
1.000000 0.700000 0.000000
1.100000 0.700000 0.000000
1.200000 0.700000 0.000000
1.300000 0.700000 0.000000
1.400000 0.700000 0.000000
1.500000 0.700000 0.000000
1.600000 0.700000 0.000000
1.700000 0.700000 0.000000
1.800000 0.700000 0.000000
1.900000 0.700000 0.000000
2.000000 0.700000 0.000000
2.100000 0.700000 0.000000
2.200000 0.700000 0.000000
2.300000 0.700000 0.000000
2.400000 0.700000 0.000000
2.500000 0.700000 0.000000
2.600000 0.700000 0.000000
2.700000 0.700000 0.000000
2.800000 0.700000 0.000000
2.900000 0.700000 0.000000
3.000000 0.700000 0.000000
3.100000 0.700000 0.000000
3.200000 0.700000 0.000000
3.300000 0.700000 0.000000
3.400000 0.700000 0.000000
3.500000 0.700000 0.000000
3.600000 0.700000 0.000000
3.700000 0.700000 0.000000
3.800000 0.700000 0.000000
3.900000 0.700000 0.000000
4.000000 0.700000 0.000000
0.000000 0.800000 0.000000
0.100000 0.800000 0.000000
0.200000 0.800000 0.000000
0.300000 0.800000 0.000000
0.400000 0.800000 0.000000
0.500000 0.800000 0.000000
0.600000 0.800000 0.000000
0.700000 0.800000 0.000000
0.800000 0.800000 0.000000
0.900000 0.800000 0.000000
1.000000 0.800000 0.000000
1.100000 0.800000 0.000000
1.200000 0.800000 0.000000
1.300000 0.800000 0.000000
1.400000 0.800000 0.000000
1.500000 0.800000 0.000000
1.600000 0.800000 0.000000
1.700000 0.800000 0.000000
1.800000 0.800000 0.000000
1.900000 0.800000 0.000000
2.000000 0.800000 0.000000
2.100000 0.800000 0.000000
2.200000 0.800000 0.000000
2.300000 0.800000 0.000000
2.400000 0.800000 0.000000
2.500000 0.800000 0.000000
2.600000 0.800000 0.000000
2.700000 0.800000 0.000000
2.800000 0.800000 0.000000
2.900000 0.800000 0.000000
3.000000 0.800000 0.000000
3.100000 0.800000 0.000000
3.200000 0.800000 0.000000
3.300000 0.800000 0.000000
3.400000 0.800000 0.000000
3.500000 0.800000 0.000000
3.600000 0.800000 0.000000
[...]
CELL_DATA 8000
SCALARS pressure float 1
LOOKUP_TABLE default
-24.6218
-23.0435
-21.8725
-20.9875
-20.2654
-19.6257
-19.0197
-18.4171
-17.7983
-17.1505
-16.4664
-15.7439
-14.9862
-14.2005
-13.3975
-12.5899
-11.7914
-11.0149
-10.2717
-9.5699
-8.91356
-8.30267
-7.73378
-7.20129
-6.69862
-6.21933
-5.75765
-5.30887
-4.86926
-4.43605
-4.00724
-3.5814
-3.15753
-2.73496
-2.31325
-1.89208
-1.47126
-1.05067
-0.63025
-0.209992
-25.8028
-23.2156
-21.8088
-20.8944
-20.1893
-19.5716
-18.9834
-18.3937
-17.7837
-17.1418
-16.4615
-15.7413
-14.9846
-14.1993
-13.3961
-12.5882
-11.7891
-11.0121
-10.2686
-9.56675
-8.91065
-8.3002
-7.73187
-7.19991
-6.6977
-6.21876
-5.75733
-5.3087
-4.86919
-4.43604
-4.00725
-3.58142
-3.15755
-2.73498
-2.31326
-1.89209
-1.47127
-1.05068
-0.630248
-0.209974
-27.4903
-23.7041
-21.8959
-20.8647
-20.1384
-19.5285
-18.955
-18.3794
-17.7809
-17.1471
-16.4714
-15.7525
-14.9942
-14.205
-13.3967
-12.5828
-11.7779
-10.9958
-10.2485
-9.54486
-8.88897
-8.28037
-7.7149
-7.18618
-6.6871
-6.21088
-5.75166
-5.30473
-4.86646
-4.4342
-4.00602
-3.5806
-3.15702
-2.73464
-2.31304
-1.89195
-1.47118
-1.05062
-0.630202
-0.209934
-29.2539
-24.3361
-22.0974
-20.9117
-20.137
-19.5191
-18.952
-18.3871
-17.7988
-17.1725
-16.5004
-15.7804
-15.0169
-14.2192
-13.4004
-12.5751
-11.759
-10.9669
-10.2124
-9.50511
-8.84934
-8.24395
-7.68358
-7.1607
-6.66731
-6.19608
-5.74093
-5.29715
-4.86121
-4.43062
-4.00362
-3.57901
-3.15597
-2.73396
-2.3126
-1.89167
-1.47101
-1.05051
-0.630133
-0.209897
-30.9104
-24.9974
-22.3573
-21.0127
-20.1788
-19.5434
-18.9766
-18.4187
-17.8389
-17.219
-16.5488
-15.8252
-15.0528
-14.2422
-13.4079
-12.5661
-11.7336
-10.9272
-10.1621
-9.44935
-8.79363
-8.19269
-7.63949
-7.12482
-6.63941
-6.17518
-5.72575
-5.28639
-4.85374
-4.42552
-4.00019
-3.57672
-3.15446
-2.73297
-2.31196
-1.89126
-1.47075
-1.05035
-0.630048
-0.209867
-32.3701
-25.6185
-22.6304
-21.1407
-20.2479
-19.592
-19.0224
-18.4695
-17.8968
-17.2823
-16.6128
-15.8836
-15.0993
-14.2723
-13.4188
-12.5567
-11.7042
-10.88
-10.1016
-9.38207
-8.72633
-8.13082
-7.58635
-7.08162
-6.60583
-6.15002
-5.70746
-5.27341
-4.84472
-4.41935
-3.99602
-3.57394
-3.15262
-2.73176
-2.31118
-1.89077
-1.47044
-1.05017
-0.629954
-0.209846
-33.5825
-26.1561
-22.8836
-21.2719
-20.3273
-19.6522
-19.0792
-18.5303
-17.9639
-17.3541
-16.6845
-15.9486
-15.1511
-14.3061
-13.4321
-12.5483
-11.6743
-10.8308
-10.0378
-9.31076
-8.65492
-8.06522
-7.53009
-7.03596
-6.57037
-6.12347
-5.68815
-5.2597
-4.83517
-4.4128
-3.99158
-3.57096
-3.15064
-2.73046
-2.31034
-1.89022
-1.4701
-1.04997
-0.629859
-0.209831
-34.516
-26.5817
-23.0932
-21.3874
-20.4021
-19.7115
-19.1357
-18.5903
-18.0294
-17.4235
-16.7534
-16.011
-15.2009
-14.339
-13.4459
-12.5419
-11.648
-10.7863
-9.97937
-9.24505
-8.58897
-8.00463
-7.47816
-6.99384
-6.5377
-6.099
-5.67035
-5.24705
-4.82634
-4.40673
-3.98746
-3.56819
-3.1488
-2.72924
-2.30954
-1.88971
-1.46978
-1.04978
-0.62977
-0.209819
-35.1498
-26.8763
-23.2428
-21.4732
-20.4601
-19.759
-19.1815
-18.6389
-18.0822
-17.4794
-16.8088
-16.061
-15.2409
-14.366
-13.4581
-12.5387
-11.6292
-10.7531
-9.9351
-9.19478
-8.53826
-7.95791
-7.43808
-6.96132
-6.51246
-6.0801
-5.65658
-5.23724
-4.81948
-4.402
-3.98423
-3.56601
-3.14733
-2.72827
-2.3089
-1.88929
-1.46951
-1.04963
-0.629697
-0.209809
-35.4712
-27.0278
-23.3217
-21.5201
-20.493
-19.7867
-19.2087
-18.6678
-18.1137
-17.5125
-16.8417
-16.0909
-15.2652
-14.3829
-13.4669
-12.5388
-11.6206
-10.7363
-9.91166
-9.16761
-8.51054
-7.93221
-7.41593
-6.9433
-6.49844
-6.06956
-5.64888
-5.23173
-4.8156
-4.3993
-3.98237
-3.56473
-3.14646
-2.72768
-2.3085
-1.88902
-1.46934
-1.04952
-0.62965
-0.209802
-23.4155
-22.6995
-21.8309
-21.029
-20.3176
-19.6692
-19.0522
-18.4405
-17.8151
-17.1627
-16.4754
-15.7506
-14.9909
-14.2036
-13.3992
-12.5903
-11.7907
-11.0133
-10.2695
-9.56736
-8.91109
-8.30052
-7.73209
-7.20007
-6.69781
-6.21884
-5.75739
-5.30875
-4.86923
-4.43607
-4.00728
-3.58144
-3.15757
-2.735
-2.31328
-1.8921
-1.47128
-1.05068
-0.630249
-0.209973
-23.7572
-22.7832
-21.803
-20.9732
-20.2632
-19.6231
-19.014
-18.4084
-17.7875
-17.1387
-16.4548
-15.7336
-14.9781
-14.1954
-13.3958
-12.5919
-11.7968
-11.0234
-10.2824
-9.58202
-8.92618
-8.31496
-7.74508
-7.21116
-6.70689
-6.22599
-5.76286
-5.31282
-4.8722
-4.4382
-4.00878
-3.58248
-3.15829
-2.73549
-2.31361
-1.89232
-1.47143
-1.05079
-0.630324
-0.209994
-24.4567
-23.1192
-21.9198
-20.993
-20.2483
-19.6005
-18.9938
-18.3938
-17.7786
-17.1345
-16.4539
-15.7345
-14.9794
-14.1961
-13.3952
-12.5896
-11.7927
-11.0175
-10.2754
-9.57451
-8.91898
-8.30865
-7.73997
-7.2073
-6.70413
-6.22413
-5.76167
-5.31211
-4.87179
-4.43799
-4.00869
-3.58245
-3.15829
-2.7355
-2.31363
-1.89235
-1.47145
-1.05081
-0.630333
-0.209978
-25.2947
-23.5854
-22.1349
-21.0795
-20.2781
-19.6095
-18.9987
-18.4015
-17.7911
-17.1514
-16.473
-15.7531
-14.9946
-14.2057
-13.3979
-12.5846
-11.7802
-10.9983
-10.2513
-9.54796
-8.89253
-8.28435
-7.7191
-7.19033
-6.69096
-6.21429
-5.75454
-5.30708
-4.86833
-4.43564
-4.00712
-3.58143
-3.15762
-2.73508
-2.31336
-1.89218
-1.47135
-1.05075
-0.630302
-0.209959
-26.1423
-24.0935
-22.4
-21.2106
-20.3439
-19.6474
-19.0279
-18.431
-17.8244
-17.1881
-16.5106
-15.7877
-15.0224
-14.2236
-13.4041
-12.5782
-11.7614
-10.9685
-10.2133
-9.50571
-8.85017
-8.24522
-7.68526
-7.1626
-6.66922
-6.19786
-5.74251
-5.29848
-4.86231
-4.43151
-4.00432
-3.57955
-3.15639
-2.73427
-2.31284
-1.89185
-1.47115
-1.05063
-0.630241
-0.209946
-26.9245
-24.584
-22.6749
-21.3614
-20.4309
-19.7052
-19.0752
-18.4773
-17.8735
-17.24
-16.5624
-15.8347
-15.0599
-14.2481
-13.4134
-12.5715
-11.7387
-10.9316
-10.1657
-9.45259
-8.79681
-8.19589
-7.64256
-7.12756
-6.64169
-6.17699
-5.72714
-5.28744
-4.85455
-4.42614
-4.00066
-3.57709
-3.15474
-2.73318
-2.31213
-1.8914
-1.47087
-1.05047
-0.630163
-0.209938
-27.5945
-25.0166
-22.9286
-21.5098
-20.5233
-19.7711
-19.1311
-18.5321
-17.9308
-17.2997
-16.6213
-15.8879
-15.1023
-14.276
-13.4247
-12.5653
-11.7153
-10.8926
-10.1147
-9.39537
-8.73928
-8.14273
-7.59659
-7.08985
-6.61205
-6.15449
-5.71055
-5.2755
-4.84611
-4.42028
-3.99664
-3.57437
-3.15292
-2.73198
-2.31134
-1.89089
-1.47055
-1.05028
-0.630077
-0.209935
-28.1214
-25.3633
-23.1385
-21.6377
-20.6071
-19.8336
-19.1856
-18.5857
-17.9868
-17.3576
-16.6782
-15.9393
-15.1432
-14.3032
-13.4365
-12.5608
-11.6946
-10.8571
-10.0678
-9.34231
-8.6858
-8.0933
-7.55386
-7.05481
-6.58451
-6.13358
-5.69511
-5.26435
-4.83822
-4.41478
-3.99286
-3.5718
-3.15119
-2.73082
-2.31058
-1.8904
-1.47024
-1.0501
-0.629994
-0.209933
-28.4844
-25.6053
-23.2881
-21.7317
-20.6708
-19.8826
-19.2292
-18.629
-18.0319
-17.4043
-16.7241
-15.9807
-15.1763
-14.3255
-13.4469
-12.5587
-11.6799
-10.8307
-10.0322
-9.30166
-8.64459
-8.05509
-7.52078
-7.02766
-6.56316
-6.11735
-5.68311
-5.25568
-4.83206
-4.41047
-3.98988
-3.56975
-3.1498
-2.72989
-2.30996
-1.88999
-1.46998
-1.04995
-0.629924
-0.20993
-28.6705
-25.7306
-23.3669
-21.7824
-20.7063
-19.9108
-19.2549
-18.6548
-18.059
-17.4323
-16.7516
-16.0056
-15.1966
-14.3398
-13.4545
-12.5594
-11.6735
-10.8175
-10.0135
-9.27976
-8.62208
-8.03405
-7.50248
-7.0126
-6.55127
-6.10827
-5.67636
-5.25077
-4.82856
-4.40799
-3.98815
-3.56855
-3.14897
-2.72932
-2.30957
-1.88972
-1.4698
-1.04985
-0.629877
-0.209925
-22.4273
-22.1124
-21.5516
-20.9193
-20.2888
-19.676
-19.0734
-18.4671
-17.8433
-17.1905
-16.5011
-15.7727
-15.0079
-14.2143
-13.403
-12.5872
-11.781
-10.998
-10.2502
-9.54612
-8.88994
-8.28112
-7.71548
-7.18663
-6.68744
-6.21115
-5.75187
-5.30489
-4.86659
-4.4343
-4.00611
-3.58067
-3.15707
-2.73468
-2.31308
-1.89198
-1.4712
-1.05063
-0.630206
-0.209932
-22.4707
-22.1051
-21.5021
-20.856
-20.2266
-19.6193
-19.0224
-18.4206
-17.8002
-17.1508
-16.4656
-15.7427
-14.985
-14.1999
-13.3978
-12.5913
-11.7939
-11.0184
-10.2761
-9.57508
-8.91946
-8.30906
-7.74032
-7.20759
-6.70437
-6.22433
-5.76183
-5.31223
-4.8719
-4.43807
-4.00876
-3.58251
-3.15833
-2.73554
-2.31366
-1.89237
-1.47147
-1.05082
-0.630338
-0.209978
-22.7147
-22.265
-21.5713
-20.87
-20.2145
-19.5979
-18.9997
-18.4001
-17.7832
-17.1374
-16.4554
-15.7352
-14.9798
-14.1965
-13.3961
-12.5911
-11.7949
-11.0202
-10.2786
-9.57821
-8.92317
-8.31319
-7.7446
-7.21173
-6.70814
-6.22758
-5.76452
-5.31438
-4.87356
-4.43933
-4.00969
-3.58319
-3.15882
-2.73589
-2.3139
-1.89255
-1.47159
-1.05091
-0.630392
-0.209976
-23.0848
-22.531
-21.7233
-20.9448
-20.2467
-19.6104
-19.0054
-18.4058
-17.7916
-17.149
-16.4691
-15.7488
-14.991
-14.2038
-13.3985
-12.5881
-11.7863
-11.0066
-10.2612
-9.55907
-8.90445
-8.2965
-7.73077
-7.20092
-6.70008
-6.2218
-5.7605
-5.31166
-4.87177
-4.43818
-4.00896
-3.58274
-3.15856
-2.73573
-2.31382
-1.89251
-1.47158
-1.05091
-0.630395
-0.209971
-23.508
-22.8479
-21.9224
-21.0599
-20.3123
-19.6508
-19.0358
-18.4345
-17.8226
-17.1828
-16.5039
-15.7811
-15.0169
-14.2207
-13.405
-12.5836
-11.7706
-10.9806
-10.2274
-9.52148
-8.8672
-8.2627
-7.70211
-7.17786
-6.68231
-6.20856
-5.75091
-5.30488
-4.86707
-4.43497
-4.00681
-3.58132
-3.15763
-2.73513
-2.31344
-1.89227
-1.47144
-1.05083
-0.630363
-0.209972
-23.9294
-23.1712
-22.1365
-21.1937
-20.397
-19.7095
-19.0835
-18.4802
-17.8707
-17.2337
-16.5551
-15.8279
-15.0541
-14.245
-13.415
-12.5784
-11.7502
-10.9461
-10.1818
-9.47055
-8.81669
-8.21683
-7.66312
-7.14637
-6.65787
-6.1902
-5.73749
-5.29528
-4.86033
-4.43032
-4.00364
-3.57919
-3.15621
-2.7342
-2.31284
-1.89189
-1.47121
-1.0507
-0.630307
-0.209981
-24.3091
-23.4673
-22.3392
-21.3266
-20.4862
-19.7752
-19.1394
-18.5345
-17.9275
-17.2936
-16.6152
-15.8826
-15.0973
-14.2733
-13.4271
-12.5738
-11.7285
-10.9081
-10.1309
-9.41338
-8.76011
-8.16561
-7.61968
-7.1113
-6.63063
-6.16969
-5.72243
-5.28447
-4.8527
-4.42502
-4.00001
-3.57672
-3.15456
-2.73311
-2.31212
-1.89142
-1.47092
-1.05054
-0.630238
-0.209994
-24.6183
-23.7109
-22.5097
-21.4421
-20.5669
-19.837
-19.1934
-18.5876
-17.9833
-17.3525
-16.6742
-15.9362
-15.1394
-14.3009
-13.4396
-12.5706
-11.7093
-10.8731
-10.0829
-9.35917
-8.70641
-8.11706
-7.57856
-7.07814
-6.60487
-6.15028
-5.70816
-5.27419
-4.84543
-4.41994
-3.99651
-3.57434
-3.15294
-2.73203
-2.31141
-1.89096
-1.47063
-1.05037
-0.630167
-0.210005
-24.8363
-23.884
-22.6327
-21.5272
-20.6281
-19.8853
-19.2364
-18.6305
-18.0285
-17.4
-16.7217
-15.9792
-15.1733
-14.3234
-13.4506
-12.5696
-11.6959
-10.8473
-10.0467
-9.31747
-8.66471
-8.0792
-7.54644
-7.05221
-6.58472
-6.13508
-5.69697
-5.2661
-4.83968
-4.41591
-3.99371
-3.57242
-3.15164
-2.73115
-2.31081
-1.89057
-1.47038
-1.05023
-0.630105
-0.210012
-24.95
-23.9748
-22.6982
-21.5735
-20.6622
-19.913
-19.2618
-18.6561
-18.0555
-17.4285
-16.7501
-16.005
-15.1939
-14.3377
-13.4585
-12.5711
-11.6906
-10.8347
-10.0277
-9.29495
-8.64181
-8.05821
-7.52855
-7.03772
-6.57342
-6.12651
-5.69063
-5.2615
-4.83638
-4.41357
-3.99207
-3.57127
-3.15084
-2.7306
-2.31044
-1.89031
-1.47021
-1.05013
-0.63006
-0.210013
-21.6939
-21.5445
-21.1903
-20.7173
-20.1896
-19.6381
-19.0712
-18.4859
-17.8741
-17.2273
-16.5389
-15.8069
-15.0348
-14.2312
-13.4084
-12.5805
-11.7627
-10.9697
-10.2145
-9.50686
-8.85082
-8.2452
-7.68463
-7.16158
-6.66802
-6.19666
-5.7414
-5.29752
-4.86151
-4.43086
-4.00382
-3.57917
-3.1561
-2.73406
-2.31268
-1.89173
-1.47105
-1.05053
-0.630143
-0.209896
-21.6424
-21.4975
-21.1261
-20.6448
-20.1173
-19.5695
-19.0067
-18.4248
-17.8159
-17.1725
-16.4893
-15.7648
-15.0026
-14.211
-13.4013
-12.5869
-11.7817
-10.9995
-10.2523
-9.54892
-8.89344
-8.28522
-7.7199
-7.19104
-6.69157
-6.21481
-5.75497
-5.30743
-4.86861
-4.43588
-4.00731
-3.58158
-3.15775
-2.73517
-2.31344
-1.89224
-1.4714
-1.05078
-0.630314
-0.209961
-21.6886
-21.5483
-21.1471
-20.6391
-20.0959
-19.5414
-18.9773
-18.3968
-17.791
-17.1513
-16.4719
-15.7512
-14.9927
-14.2048
-13.3991
-12.5885
-11.7866
-11.0068
-10.2615
-9.55943
-8.90488
-8.29695
-7.73122
-7.20134
-6.70045
-6.22212
-5.76077
-5.31189
-4.87195
-4.43833
-4.00908
-3.58284
-3.15864
-2.7358
-2.31387
-1.89254
-1.47161
-1.05092
-0.630405
-0.209973
-21.8322
-21.6781
-21.2337
-20.6865
-20.1173
-19.549
-18.9798
-18.3998
-17.7972
-17.1614
-16.4849
-15.7646
-15.0039
-14.2123
-13.4023
-12.5869
-11.7798
-10.9949
-10.2455
-9.5419
-8.88841
-8.28324
-7.72083
-7.19404
-6.69565
-6.21915
-5.75905
-5.31097
-4.87152
-4.43817
-4.00907
-3.5829
-3.15872
-2.73589
-2.31395
-1.89262
-1.47167
-1.05098
-0.630441
-0.209981
-22.0396
-21.8585
-21.3634
-20.7708
-20.1705
-19.5849
-19.009
-18.4291
-17.8305
-17.1994
-16.5254
-15.8028
-15.0344
-14.2322
-13.4108
-12.5836
-11.764
-10.9669
-10.2077
-9.49992
-8.84791
-8.2479
-7.69216
-7.17199
-6.67938
-6.20751
-5.75093
-5.30542
-4.86779
-4.4357
-4.00746
-3.58187
-3.15807
-2.73548
-2.31371
-1.89247
-1.4716
-1.05095
-0.630438
-0.209998
-22.2737
-22.0595
-21.513
-20.8747
-20.2428
-19.6394
-19.0567
-18.4777
-17.8844
-17.2595
-16.5884
-15.8615
-15.0803
-14.2617
-13.4238
-12.5796
-11.7421
-10.9267
-10.1524
-9.43842
-8.78878
-8.19638
-7.65018
-7.1394
-6.65497
-6.18973
-5.73826
-5.29656
-4.8617
-4.43157
-4.00469
-3.58003
-3.15686
-2.7347
-2.31321
-1.89216
-1.47141
-1.05085
-0.630406
-0.210023
-22.5016
-22.2544
-21.6609
-20.9814
-20.3209
-19.7016
-19.1132
-18.5363
-17.9495
-17.3324
-16.6653
-15.9331
-15.135
-14.2963
-13.4396
-12.5761
-11.7179
-10.8807
-10.0869
-9.36551
-8.71939
-8.13648
-7.60166
-7.10179
-6.62675
-6.16907
-5.72345
-5.28612
-4.85444
-4.42659
-4.00131
-3.57776
-3.15535
-2.7337
-2.31256
-1.89175
-1.47116
-1.05071
-0.630356
-0.210052
-22.6967
-22.421
-21.789
-21.0762
-20.3926
-19.7606
-19.1683
-18.5941
-18.0142
-17.4051
-16.7424
-16.0049
-15.1888
-14.3297
-13.4556
-12.5743
-11.6966
-10.8377
-10.023
-9.29402
-8.65168
-8.07835
-7.55477
-7.06553
-6.59955
-6.14915
-5.70913
-5.27599
-4.84737
-4.42171
-3.99798
-3.5755
-3.15383
-2.73269
-2.3119
-1.89132
-1.47089
-1.05056
-0.630299
-0.210077
-22.8389
-22.5425
-21.8835
-21.1473
-20.4476
-19.807
-19.2124
-18.6408
-18.0666
-17.4635
-16.8035
-16.0609
-15.2308
-14.3563
-13.469
-12.5747
-11.6826
-10.8068
-9.97564
-9.23939
-8.59892
-8.03264
-7.51776
-7.03688
-6.57804
-6.13337
-5.69776
-5.26792
-4.84171
-4.41778
-3.99527
-3.57365
-3.15258
-2.73185
-2.31133
-1.89095
-1.47066
-1.05043
-0.630246
-0.210093
-22.9149
-22.6075
-21.9345
-21.1864
-20.4786
-19.8338
-19.2384
-18.6686
-18.0978
-17.4982
-16.8396
-16.0939
-15.2558
-14.3727
-13.4783
-12.5777
-11.6785
-10.7926
-9.95128
-9.20993
-8.56978
-8.00708
-7.49695
-7.0207
-6.56586
-6.1244
-5.69128
-5.26329
-4.83843
-4.41548
-3.99367
-3.57254
-3.15181
-2.73132
-2.31097
-1.8907
-1.4705
-1.05033
-0.630205
-0.2101
-21.1634
-21.077
-20.8435
-20.4898
-20.0563
-19.5719
-19.0511
-18.4968
-17.9054
-17.2703
-16.5861
-15.8511
-15.07
-14.2532
-13.4149
-12.5705
-11.7366
-10.9295
-10.1641
-9.45134
-8.79556
-8.19451
-7.64116
-7.12628
-6.64065
-6.17621
-5.72659
-5.28707
-4.85429
-4.42597
-4.00055
-3.57701
-3.15469
-2.73315
-2.31211
-1.89137
-1.47083
-1.0504
-0.630071
-0.20987
-21.0884
-21.0188
-20.7752
-20.4133
-19.9774
-19.4941
-18.9751
-18.4225
-17.8328
-17.2008
-16.5223
-15.7967
-15.0284
-14.2273
-13.4061
-12.5793
-11.762
-10.9692
-10.2141
-9.50684
-8.85148
-8.24662
-7.68663
-7.16387
-6.67035
-6.19883
-5.74332
-5.29915
-4.86286
-4.43195
-4.00469
-3.57985
-3.15662
-2.73445
-2.31298
-1.89196
-1.47123
-1.05068
-0.630269
-0.209951
-21.0526
-21.013
-20.7642
-20.3903
-19.9455
-19.458
-18.9384
-18.3875
-17.8013
-17.1738
-16.5002
-15.7794
-15.0158
-14.2195
-13.4038
-12.5825
-11.7698
-10.9803
-10.2275
-9.52202
-8.86803
-8.26368
-7.70313
-7.17885
-6.6832
-6.20933
-5.75157
-5.30543
-4.86752
-4.43534
-4.00711
-3.58156
-3.15782
-2.73529
-2.31356
-1.89236
-1.47151
-1.05088
-0.630388
-0.209977
-21.089
-21.0641
-20.8037
-20.4121
-19.9535
-19.4583
-18.937
-18.3888
-17.8081
-17.1869
-16.518
-15.7981
-15.0311
-14.2297
-13.4088
-12.582
-11.763
-10.9663
-10.2075
-9.50011
-8.84834
-8.24846
-7.69275
-7.17257
-6.6799
-6.20796
-5.75131
-5.30574
-4.86806
-4.43592
-4.00764
-3.58201
-3.15818
-2.73557
-2.31378
-1.89253
-1.47163
-1.05097
-0.630453
-0.210001
-21.188
-21.1612
-20.8813
-20.4676
-19.9921
-19.4879
-18.9649
-18.4212
-17.8488
-17.2369
-16.574
-15.8518
-15.0729
-14.2563
-13.421
-12.5795
-11.7441
-10.9299
-10.1561
-9.44333
-8.79547
-8.20453
-7.65898
-7.148
-6.66274
-6.19635
-5.74364
-5.30078
-4.8649
-4.43395
-4.00643
-3.58128
-3.15775
-2.73533
-2.31365
-1.89247
-1.47162
-1.05098
-0.630476
-0.210034
-21.3252
-21.2853
-20.9812
-20.5435
-20.0504
-19.5373
-19.0137
-18.4768
-17.9165
-17.3185
-16.6649
-15.9386
-15.1377
-14.2958
-13.4393
-12.5763
-11.7168
-10.8751
-10.0753
-9.35469
-8.71415
-8.13748
-7.60728
-7.10985
-6.63546
-6.17729
-5.73057
-5.29194
-4.85901
-4.43006
-4.00389
-3.57964
-3.1567
-2.73466
-2.31323
-1.89222
-1.47148
-1.05091
-0.630467
-0.210075
-21.4739
-21.4155
-21.0864
-20.6257
-20.1164
-19.5956
-19.0731
-18.5452
-18.0002
-17.4207
-16.7815
-16.0515
-15.2172
-14.3412
-13.4615
-12.5741
-11.6864
-10.8098
-9.97152
-9.24244
-8.61404
-8.05675
-7.54578
-7.06467
-6.60309
-6.15452
-5.71479
-5.28115
-4.8517
-4.42516
-4.00063
-3.57748
-3.15529
-2.73375
-2.31265
-1.89185
-1.47126
-1.0508
-0.630436
-0.210119
-21.6094
-21.5326
-21.1815
-20.7012
-20.1787
-19.6521
-19.1318
-18.6134
-18.0844
-17.5249
-16.9025
-16.1707
-15.2956
-14.3832
-13.484
-12.5744
-11.6606
-10.7489
-9.86353
-9.12715
-8.51328
-7.97664
-7.48531
-7.02045
-6.57144
-6.13223
-5.69929
-5.27047
-4.84442
-4.42023
-3.99732
-3.57528
-3.15383
-2.73278
-2.31202
-1.89145
-1.47101
-1.05067
-0.630393
-0.210156
-21.7121
-21.6208
-21.2534
-20.7591
-20.2273
-19.6972
-19.1791
-18.6686
-18.1521
-17.6069
-16.9941
-16.2559
-15.3529
-14.4151
-13.5009
-12.577
-11.6458
-10.7082
-9.78976
-9.04227
-8.43567
-7.9136
-7.4373
-6.98523
-6.54619
-6.11441
-5.68687
-5.26189
-4.83854
-4.41623
-3.99461
-3.57345
-3.1526
-2.73197
-2.31148
-1.8911
-1.47079
-1.05055
-0.630349
-0.210181
-21.7684
-21.6691
-21.2932
-20.7916
-20.2551
-19.7235
-19.2072
-18.7014
-18.1923
-17.655
-17.0469
-16.3039
-15.3848
-14.4333
-13.5117
-12.5824
-11.6453
-10.6917
-9.75316
-8.99721
-8.39295
-7.87823
-7.41013
-6.96521
-6.53181
-6.10423
-5.67973
-5.25693
-4.83511
-4.41386
-3.99299
-3.57234
-3.15184
-2.73145
-2.31112
-1.89086
-1.47064
-1.05046
-0.630312
-0.210192
-20.7849
-20.7198
-20.5529
-20.2798
-19.9209
-19.4975
-19.0235
-18.5041
-17.9373
-17.3176
-16.6395
-15.902
-15.1108
-14.2786
-13.422
-12.5581
-11.705
-10.881
-10.1031
-9.38409
-8.72872
-8.13333
-7.58879
-7.08384
-6.60777
-6.15165
-5.70881
-5.27451
-4.84561
-4.42006
-3.9966
-3.5744
-3.15299
-2.73206
-2.31141
-1.89094
-1.47057
-1.05025
-0.629997
-0.209854
-20.7097
-20.6615
-20.4855
-20.2027
-19.8385
-19.413
-18.938
-18.4178
-17.851
-17.2335
-16.5616
-15.8351
-15.0596
-14.2468
-13.4115
-12.5695
-11.7372
-10.931
-10.166
-9.45371
-8.79852
-8.19791
-7.64465
-7.12955
-6.64348
-6.17854
-5.72845
-5.28852
-4.85543
-4.42685
-4.00124
-3.57756
-3.15512
-2.73348
-2.31237
-1.89158
-1.471
-1.05056
-0.63021
-0.209949
-20.6432
-20.6294
-20.4568
-20.1682
-19.7984
-19.3701
-18.8951
-18.3773
-17.8147
-17.2029
-16.5373
-15.8164
-15.0458
-14.2384
-13.4096
-12.5742
-11.7472
-10.9444
-10.1814
-9.47111
-8.81795
-8.21846
-7.66488
-7.14808
-6.65942
-6.19156
-5.73864
-5.29624
-4.86112
-4.43097
-4.00417
-3.57961
-3.15655
-2.73447
-2.31305
-1.89205
-1.47132
-1.05078
-0.630352
-0.209991
-20.631
-20.6388
-20.4669
-20.1716
-19.7954
-19.3643
-18.891
-18.379
-17.8254
-17.2236
-16.5656
-15.8459
-15.0689
-14.2531
-13.4171
-12.5745
-11.7386
-10.9247
-10.1518
-9.43877
-8.78978
-8.1977
-7.65159
-7.14076
-6.65619
-6.19079
-5.73915
-5.2973
-4.8623
-4.43206
-4.00509
-3.58035
-3.15712
-2.73491
-2.31337
-1.89229
-1.4715
-1.05091
-0.630441
-0.210031
-20.6769
-20.689
-20.5108
-20.2058
-19.8222
-19.3888
-18.9194
-18.4176
-17.8792
-17.2944
-16.6487
-15.9271
-15.129
-14.289
-13.4341
-12.5724
-11.7142
-10.8737
-10.0749
-9.355
-8.71487
-8.13837
-7.60818
-7.11069
-6.63619
-6.17791
-5.73109
-5.29237
-4.85936
-4.43034
-4.00412
-3.57982
-3.15685
-2.73478
-2.31332
-1.89229
-1.47153
-1.05095
-0.630487
-0.21008
-20.7651
-20.7684
-20.5777
-20.2607
-19.8692
-19.4346
-18.9719
-18.485
-17.9695
-17.4125
-16.7897
-16.0663
-15.2237
-14.3403
-13.4592
-12.5699
-11.6782
-10.7939
-9.94418
-9.21588
-8.59487
-8.04542
-7.54041
-7.06311
-6.60366
-6.15609
-5.71667