# vtk DataFile Version 2.0
I need something to put here
ASCII

DATASET STRUCTURED_GRID
DIMENSIONS 15 11 21
POINTS 3465 float
0.000000 1.000000 0.000000
0.100000 1.000000 0.000000
0.200000 1.000000 0.000000
0.300000 1.000000 0.000000
0.400000 1.000000 0.000000
0.500000 1.000000 0.000000
0.600000 1.000000 0.000000
0.700000 1.000000 0.000000
0.800000 1.000000 0.000000
0.900000 1.000000 0.000000
1.000000 1.000000 0.000000
1.100000 1.000000 0.000000
1.200000 1.000000 0.000000
1.300000 1.000000 0.000000
1.400000 1.000000 0.000000
0.000000 1.100000 0.000000
0.100000 1.100000 0.000000
0.200000 1.100000 0.000000
0.300000 1.100000 0.000000
0.400000 1.100000 0.000000
0.500000 1.100000 0.000000
0.600000 1.100000 0.000000
0.700000 1.100000 0.000000
0.800000 1.100000 0.000000
0.900000 1.100000 0.000000
1.000000 1.100000 0.000000
1.100000 1.100000 0.000000
1.200000 1.100000 0.000000
1.300000 1.100000 0.000000
1.400000 1.100000 0.000000
0.000000 1.200000 0.000000
0.100000 1.200000 0.000000
0.200000 1.200000 0.000000
0.300000 1.200000 0.000000
0.400000 1.200000 0.000000
0.500000 1.200000 0.000000
0.600000 1.200000 0.000000
0.700000 1.200000 0.000000
0.800000 1.200000 0.000000
0.900000 1.200000 0.000000
1.000000 1.200000 0.000000
1.100000 1.200000 0.000000
1.200000 1.200000 0.000000
1.300000 1.200000 0.000000
1.400000 1.200000 0.000000
0.000000 1.300000 0.000000
0.100000 1.300000 0.000000
0.200000 1.300000 0.000000
0.300000 1.300000 0.000000
0.400000 1.300000 0.000000
0.500000 1.300000 0.000000
0.600000 1.300000 0.000000
0.700000 1.300000 0.000000
0.800000 1.300000 0.000000
0.900000 1.300000 0.000000
1.000000 1.300000 0.000000
1.100000 1.300000 0.000000
1.200000 1.300000 0.000000
1.300000 1.300000 0.000000
1.400000 1.300000 0.000000
0.000000 1.400000 0.000000
0.100000 1.400000 0.000000
0.200000 1.400000 0.000000
0.300000 1.400000 0.000000
0.400000 1.400000 0.000000
0.500000 1.400000 0.000000
0.600000 1.400000 0.000000
0.700000 1.400000 0.000000
0.800000 1.400000 0.000000
0.900000 1.400000 0.000000
1.000000 1.400000 0.000000
1.100000 1.400000 0.000000
1.200000 1.400000 0.000000
1.300000 1.400000 0.000000
1.400000 1.400000 0.000000
0.000000 1.500000 0.000000
0.100000 1.500000 0.000000
0.200000 1.500000 0.000000
0.300000 1.500000 0.000000
0.400000 1.500000 0.000000
0.500000 1.500000 0.000000
0.600000 1.500000 0.000000
0.700000 1.500000 0.000000
0.800000 1.500000 0.000000
0.900000 1.500000 0.000000
1.000000 1.500000 0.000000
1.100000 1.500000 0.000000
1.200000 1.500000 0.000000
1.300000 1.500000 0.000000
1.400000 1.500000 0.000000
0.000000 1.600000 0.000000
0.100000 1.600000 0.000000
0.200000 1.600000 0.000000
0.300000 1.600000 0.000000
0.400000 1.600000 0.000000
0.500000 1.600000 0.000000
0.600000 1.600000 0.000000
0.700000 1.600000 0.000000
0.800000 1.600000 0.000000
0.900000 1.600000 0.000000
1.000000 1.600000 0.000000
1.100000 1.600000 0.000000
1.200000 1.600000 0.000000
1.300000 1.600000 0.000000
1.400000 1.600000 0.000000
0.000000 1.700000 0.000000
0.100000 1.700000 0.000000
0.200000 1.700000 0.000000
0.300000 1.700000 0.000000
0.400000 1.700000 0.000000
0.500000 1.700000 0.000000
0.600000 1.700000 0.000000
0.700000 1.700000 0.000000
0.800000 1.700000 0.000000
0.900000 1.700000 0.000000
1.000000 1.700000 0.000000
1.100000 1.700000 0.000000
1.200000 1.700000 0.000000
1.300000 1.700000 0.000000
1.400000 1.700000 0.000000
0.000000 1.800000 0.000000
0.100000 1.800000 0.000000
0.200000 1.800000 0.000000
0.300000 1.800000 0.000000
0.400000 1.800000 0.000000
0.500000 1.800000 0.000000
0.600000 1.800000 0.000000
0.700000 1.800000 0.000000
0.800000 1.800000 0.000000
0.900000 1.800000 0.000000
1.000000 1.800000 0.000000
1.100000 1.800000 0.000000
1.200000 1.800000 0.000000
1.300000 1.800000 0.000000
1.400000 1.800000 0.000000
0.000000 1.900000 0.000000
0.100000 1.900000 0.000000
0.200000 1.900000 0.000000
0.300000 1.900000 0.000000
0.400000 1.900000 0.000000
0.500000 1.900000 0.000000
0.600000 1.900000 0.000000
0.700000 1.900000 0.000000
0.800000 1.900000 0.000000
0.900000 1.900000 0.000000
1.000000 1.900000 0.000000
1.100000 1.900000 0.000000
1.200000 1.900000 0.000000
1.300000 1.900000 0.000000
1.400000 1.900000 0.000000
0.000000 2.000000 0.000000
0.100000 2.000000 0.000000
0.200000 2.000000 0.000000
0.300000 2.000000 0.000000
0.400000 2.000000 0.000000
0.500000 2.000000 0.000000
0.600000 2.000000 0.000000
0.700000 2.000000 0.000000
0.800000 2.000000 0.000000
0.900000 2.000000 0.000000
1.000000 2.000000 0.000000
1.100000 2.000000 0.000000
1.200000 2.000000 0.000000
1.300000 2.000000 0.000000
1.400000 2.000000 0.000000
0.000000 1.000000 0.100000
0.100000 1.000000 0.100000
0.200000 1.000000 0.100000
0.300000 1.000000 0.100000
0.400000 1.000000 0.100000
0.500000 1.000000 0.100000
0.600000 1.000000 0.100000
0.700000 1.000000 0.100000
0.800000 1.000000 0.100000
0.900000 1.000000 0.100000
1.000000 1.000000 0.100000
1.100000 1.000000 0.100000
1.200000 1.000000 0.100000
1.300000 1.000000 0.100000
1.400000 1.000000 0.100000
0.000000 1.100000 0.100000
0.100000 1.100000 0.100000
0.200000 1.100000 0.100000
0.300000 1.100000 0.100000
0.400000 1.100000 0.100000
0.500000 1.100000 0.100000
0.600000 1.100000 0.100000
0.700000 1.100000 0.100000
0.800000 1.100000 0.100000
0.900000 1.100000 0.100000
1.000000 1.100000 0.100000
1.100000 1.100000 0.100000
1.200000 1.100000 0.100000
1.300000 1.100000 0.100000
1.400000 1.100000 0.100000
0.000000 1.200000 0.100000
0.100000 1.200000 0.100000
0.200000 1.200000 0.100000
0.300000 1.200000 0.100000
0.400000 1.200000 0.100000
0.500000 1.200000 0.100000
0.600000 1.200000 0.100000
0.700000 1.200000 0.100000
0.800000 1.200000 0.100000
0.900000 1.200000 0.100000
1.000000 1.200000 0.100000
1.100000 1.200000 0.100000
1.200000 1.200000 0.100000
1.300000 1.200000 0.100000
1.400000 1.200000 0.100000
0.000000 1.300000 0.100000
0.100000 1.300000 0.100000
0.200000 1.300000 0.100000
0.300000 1.300000 0.100000
0.400000 1.300000 0.100000
0.500000 1.300000 0.100000
0.600000 1.300000 0.100000
0.700000 1.300000 0.100000
0.800000 1.300000 0.100000
0.900000 1.300000 0.100000
1.000000 1.300000 0.100000
1.100000 1.300000 0.100000
1.200000 1.300000 0.100000
1.300000 1.300000 0.100000
1.400000 1.300000 0.100000
0.000000 1.400000 0.100000
0.100000 1.400000 0.100000
0.200000 1.400000 0.100000
0.300000 1.400000 0.100000
0.400000 1.400000 0.100000
0.500000 1.400000 0.100000
0.600000 1.400000 0.100000
0.700000 1.400000 0.100000
0.800000 1.400000 0.100000
0.900000 1.400000 0.100000
1.000000 1.400000 0.100000
1.100000 1.400000 0.100000
1.200000 1.400000 0.100000
1.300000 1.400000 0.100000
1.400000 1.400000 0.100000
0.000000 1.500000 0.100000
0.100000 1.500000 0.100000
0.200000 1.500000 0.100000
0.300000 1.500000 0.100000
0.400000 1.500000 0.100000
0.500000 1.500000 0.100000
0.600000 1.500000 0.100000
0.700000 1.500000 0.100000
0.800000 1.500000 0.100000
0.900000 1.500000 0.100000
1.000000 1.500000 0.100000
1.100000 1.500000 0.100000
1.200000 1.500000 0.100000
1.300000 1.500000 0.100000
1.400000 1.500000 0.100000
0.000000 1.600000 0.100000
0.100000 1.600000 0.100000
0.200000 1.600000 0.100000
0.300000 1.600000 0.100000
0.400000 1.600000 0.100000
0.500000 1.600000 0.100000
0.600000 1.600000 0.100000
0.700000 1.600000 0.100000
0.800000 1.600000 0.100000
0.900000 1.600000 0.100000
1.000000 1.600000 0.100000
1.100000 1.600000 0.100000
1.200000 1.600000 0.100000
1.300000 1.600000 0.100000
1.400000 1.600000 0.100000
0.000000 1.700000 0.100000
0.100000 1.700000 0.100000
0.200000 1.700000 0.100000
0.300000 1.700000 0.100000
0.400000 1.700000 0.100000
0.500000 1.700000 0.100000
0.600000 1.700000 0.100000
0.700000 1.700000 0.100000
0.800000 1.700000 0.100000
0.900000 1.700000 0.100000
1.000000 1.700000 0.100000
1.100000 1.700000 0.100000
1.200000 1.700000 0.100000
1.300000 1.700000 0.100000
1.400000 1.700000 0.100000
0.000000 1.800000 0.100000
0.100000 1.800000 0.100000
0.200000 1.800000 0.100000
0.300000 1.800000 0.100000
0.400000 1.800000 0.100000
0.500000 1.800000 0.100000
0.600000 1.800000 0.100000
0.700000 1.800000 0.100000
0.800000 1.800000 0.100000
0.900000 1.800000 0.100000
1.000000 1.800000 0.100000
1.100000 1.800000 0.100000
1.200000 1.800000 0.100000
1.300000 1.800000 0.100000
1.400000 1.800000 0.100000
0.000000 1.900000 0.100000
0.100000 1.900000 0.100000
0.200000 1.900000 0.100000
0.300000 1.900000 0.100000
0.400000 1.900000 0.100000
0.500000 1.900000 0.100000
0.600000 1.900000 0.100000
0.700000 1.900000 0.100000
0.800000 1.900000 0.100000
0.900000 1.900000 0.100000
1.000000 1.900000 0.100000
1.100000 1.900000 0.100000
1.200000 1.900000 0.100000
1.300000 1.900000 0.100000
1.400000 1.900000 0.100000
0.000000 2.000000 0.100000
0.100000 2.000000 0.100000
0.200000 2.000000 0.100000
0.300000 2.000000 0.100000
0.400000 2.000000 0.100000
0.500000 2.000000 0.100000
0.600000 2.000000 0.100000
0.700000 2.000000 0.100000
0.800000 2.000000 0.100000
0.900000 2.000000 0.100000
1.000000 2.000000 0.100000
1.100000 2.000000 0.100000
1.200000 2.000000 0.100000
1.300000 2.000000 0.100000
1.400000 2.000000 0.100000
0.000000 1.000000 0.200000
0.100000 1.000000 0.200000
0.200000 1.000000 0.200000
0.300000 1.000000 0.200000
0.400000 1.000000 0.200000
0.500000 1.000000 0.200000
0.600000 1.000000 0.200000
0.700000 1.000000 0.200000
0.800000 1.000000 0.200000
0.900000 1.000000 0.200000
1.000000 1.000000 0.200000
1.100000 1.000000 0.200000
1.200000 1.000000 0.200000
1.300000 1.000000 0.200000
1.400000 1.000000 0.200000
0.000000 1.100000 0.200000
0.100000 1.100000 0.200000
0.200000 1.100000 0.200000
0.300000 1.100000 0.200000
0.400000 1.100000 0.200000
0.500000 1.100000 0.200000
0.600000 1.100000 0.200000
0.700000 1.100000 0.200000
0.800000 1.100000 0.200000
0.900000 1.100000 0.200000
1.000000 1.100000 0.200000
1.100000 1.100000 0.200000
1.200000 1.100000 0.200000
1.300000 1.100000 0.200000
1.400000 1.100000 0.200000
0.000000 1.200000 0.200000
0.100000 1.200000 0.200000
0.200000 1.200000 0.200000
0.300000 1.200000 0.200000
0.400000 1.200000 0.200000
[...]
CELL_DATA 2800
SCALARS pressure float 1
LOOKUP_TABLE default
59.506
42.7138
35.1452
31.4343
29.3668
28.0245
27.0129
26.1489
25.3376
24.5219
23.664
22.739
21.7359
20.6601
58.8866
42.434
35.0178
31.3765
29.3408
28.0123
27.0052
26.1411
25.3275
24.5091
23.6499
22.726
21.7271
20.6586
57.6567
41.8825
34.7697
31.2662
29.2932
27.9914
26.993
26.1284
25.3102
24.4866
23.6243
22.7019
21.7103
20.6549
55.8363
41.0777
34.4161
31.1154
29.2331
27.9693
26.9828
26.117
25.2918
24.4605
23.5932
22.6717
21.6887
20.6493
53.4596
40.0506
33.9816
30.9429
29.1748
27.9568
26.9833
26.1146
25.2799
24.4382
23.5639
22.6419
21.6666
20.643
50.5832
38.8505
33.5044
30.7756
29.1366
27.9666
27.0038
26.1289
25.2815
24.4267
23.543
22.6181
21.648
20.6377
47.3033
37.5581
33.0413
30.6502
29.1408
28.0117
27.052
26.165
25.3008
24.4299
23.5344
22.604
21.6359
20.6346
43.7985
36.3079
32.6752
30.6114
29.2083
28.1001
27.1298
26.2223
25.3366
24.4473
23.5381
22.6001
21.6307
20.6339
40.4395
35.3286
32.5139
30.697
29.3438
28.2232
27.2249
26.2892
25.3796
24.4717
23.5494
22.6033
21.6306
20.6346
38.0897
34.9692
32.6309
30.8784
29.4937
28.3303
27.2972
26.3363
25.4091
24.4894
23.5593
22.6083
21.6326
20.6353
45.8883
40.0756
35.3014
32.1018
29.9731
28.4682
27.3074
26.3267
25.4287
24.552
23.6562
22.7153
21.7167
20.6624
45.5481
39.8521
35.1724
32.0315
29.9357
28.4481
27.2951
26.3169
25.4187
24.5408
23.6443
22.7044
21.7092
20.6606
44.8756
39.4128
34.9211
31.8962
29.8654
28.4113
27.2733
26.2999
25.401
24.5207
23.6227
22.6843
21.6948
20.6563
43.8891
38.7756
34.5627
31.7082
29.7715
28.3652
27.2484
26.2811
25.381
24.497
23.5963
22.6591
21.6763
20.65
42.6201
37.9701
34.1218
31.4863
29.6679
28.3202
27.2282
26.2676
25.3652
24.4759
23.5711
22.6341
21.6574
20.6433
41.1191
37.0429
33.6349
31.2567
29.5726
28.2884
27.2216
26.2661
25.3595
24.4633
23.5529
22.6143
21.6418
20.6379
39.47
36.0665
33.1546
31.0535
29.5061
28.2817
27.2352
26.2811
25.3677
24.4626
23.545
22.6029
21.632
20.6348
37.817
35.1542
32.7531
30.9166
29.4875
28.3075
27.2711
26.3124
25.3892
24.4739
23.548
22.6009
21.6288
20.6343
36.4188
34.4801
32.5214
30.8827
29.5251
28.3619
27.3214
26.3523
25.418
24.493
23.5595
22.607
21.6317
20.6361
35.7209
34.2897
32.5492
30.9629
29.6003
28.4197
27.3636
26.3834
25.4419
24.5121
23.575
22.6191
21.64
20.6399
38.5395
36.621
34.0565
31.804
30.0176
28.6067
27.4485
26.4432
25.5178
24.6197
23.7102
22.7614
21.7587
20.7025
38.3489
36.4684
33.9529
31.7395
29.9792
28.5836
27.4331
26.4307
25.5054
24.6063
23.6961
22.7483
21.7491
20.6989
37.975
36.1706
33.7522
31.6158
29.9064
28.5406
27.4052
26.4083
25.4831
24.5819
23.6701
22.7237
21.7305
20.6908
37.4344
35.7436
33.4684
31.4444
29.8084
28.485
27.3708
26.3817
25.4566
24.5523
23.6379
22.6926
21.7061
20.6786
36.7548
35.2138
33.1237
31.2425
29.6982
28.4268
27.338
26.3579
25.4327
24.5246
23.6066
22.6616
21.6811
20.6656
35.9791
34.621
32.75
31.0337
29.5923
28.3774
27.3151
26.3437
25.4178
24.505
23.5828
22.6367
21.6604
20.6548
35.1734
34.0228
32.3906
30.8471
29.5089
28.3479
27.3091
26.3442
25.4162
24.4979
23.5705
22.6219
21.6471
20.6479
34.4393
33.5009
32.1013
30.7161
29.4659
28.3467
27.3236
26.3609
25.4289
24.5046
23.5713
22.6188
21.6428
20.6454
33.9252
33.1644
31.948
30.6736
29.4758
28.3758
27.3562
26.3905
25.4533
24.5234
23.5849
22.6276
21.6477
20.6473
33.7988
33.1404
31.9995
30.7453
29.541
28.4283
27.3978
26.4248
25.4833
24.5507
23.6095
22.6483
21.6625
20.6543
34.567
33.9613
32.618
31.1322
29.7546
28.5424
27.4753
26.5115
25.6078
24.7245
23.825
22.8762
21.8598
20.7851
34.4557
33.862
32.5426
31.0801
29.72
28.519
27.4576
26.4953
25.5905
24.7049
23.8037
22.8561
21.8449
20.7784
34.2399
33.6698
32.3975
30.9805
29.6547
28.4754
27.4252
26.466
25.5591
24.6689
23.7642
22.8179
21.8152
20.7621
33.9343
33.3991
32.1952
30.844
29.5673
28.4189
27.3845
26.4301
25.5207
24.6245
23.7145
22.7686
21.775
20.7359
33.563
33.0722
31.9547
30.6856
29.4695
28.359
27.344
26.3958
25.4841
24.5818
23.6661
22.7196
21.7335
20.7079
33.161
32.7208
31.7019
30.5251
29.376
28.3065
27.3122
26.3708
25.4573
24.5493
23.6281
22.6802
21.6991
20.6852
32.7776
32.3873
31.4697
30.3859
29.3025
28.2719
27.2966
26.3611
25.4459
24.5326
23.6061
22.6557
21.6766
20.6704
32.4783
32.1247
31.2966
30.2934
29.2641
28.2638
27.3021
26.37
25.4525
24.5344
23.6026
22.6483
21.6678
20.6636
32.3361
31.9909
31.2237
30.2723
29.2735
28.2872
27.33
26.3974
25.477
24.5549
23.6185
22.6592
21.6737
20.6649
32.3811
32.033
31.289
30.3439
29.339
28.3432
27.378
26.4403
25.5173
24.5933
23.654
22.6896
21.6957
20.6755
32.3211
32.1365
31.4005
30.4182
29.3816
28.3799
27.4397
26.5567
25.7124
24.8792
24.0185
23.0802
22.0292
20.9341
32.2532
32.0724
31.3478
30.3783
29.3521
28.3571
27.4194
26.5353
25.687
24.8482
23.9832
23.0462
22.0054
20.9231
32.1235
31.9498
31.2474
30.3027
29.2969
28.3148
27.3824
26.4964
25.6405
24.7908
23.9165
22.9802
21.9561
20.8922
31.9452
31.781
31.1099
30.2005
29.2237
28.2603
27.3358
26.4482
25.583
24.7193
23.8317
22.8927
21.887
20.8345
31.7389
31.5846
30.9512
30.0849
29.1435
28.203
27.289
26.4012
25.5274
24.6504
23.7505
22.8086
21.8148
20.7748
31.5325
31.3851
30.7915
29.9717
29.0687
28.1533
27.2513
26.3648
25.4846
24.5972
23.6875
22.7426
21.7559
20.7291
31.3614
31.212
30.6543
29.8788
29.0124
28.1209
27.2307
26.3463
25.4617
24.5665
23.6493
22.701
21.7173
20.7002
31.2652
31.0969
30.5642
29.824
28.9867
28.1138
27.2326
26.35
25.4625
24.5616
23.6383
22.6855
21.7004
20.6863
31.2724
31.0647
30.5427
29.8231
29.0017
28.1378
27.2602
26.3779
25.4884
24.5839
23.6557
22.6971
21.7058
20.6859
31.3539
31.12
30.6047
29.8887
29.0647
28.1958
27.3142
26.4297
25.5395
24.6342
23.7032
22.7381
21.7356
20.7002
30.9868
30.923
30.4793
29.8018
29.0137
28.1938
27.3842
26.6015
25.8466
25.1046
24.3319
23.432
22.2627
21.1887
30.9434
30.8811
30.4427
29.7716
28.9886
28.1713
27.3606
26.573
25.809
25.0548
24.2713
23.372
22.2274
21.1744
30.8622
30.8022
30.3738
29.715
28.9421
28.1298
27.3175
26.5208
25.7398
24.9617
24.1545
23.2514
22.1521
21.1237
30.755
30.6969
30.2818
29.64
28.8814
28.0769
27.2636
26.4561
25.6538
24.8443
24.001
23.0803
22.0443
20.9986
30.6392
30.5803
30.1796
29.5577
28.8166
28.0222
27.2098
26.3929
25.5712
24.7343
23.8627
22.9311
21.9251
20.8745
30.5372
30.4712
30.0828
29.4811
28.7584
27.9758
27.1663
26.3431
25.5071
24.6505
23.7603
22.822
21.8286
20.7873
30.4741
30.3898
30.0076
29.4231
28.7178
27.9469
27.1416
26.3152
25.4699
24.6004
23.6982
22.7547
21.7661
20.7359
30.4721
30.3529
29.9685
29.3956
28.7038
27.9426
27.1415
26.3143
25.4637
24.5865
23.6761
22.7269
21.7372
20.7112
30.5351
30.3666
29.9742
29.4073
28.7234
27.9679
27.1698
26.343
25.4907
24.6096
23.6937
22.7376
21.7404
20.7076
30.6126
30.4163
30.0258
29.4635
28.7811
28.0257
27.2279
26.4025
25.5522
24.6718
23.7534
22.7895
21.7781
20.7252
30.167
30.1263
29.8224
29.3236
28.7046
28.027
27.3347
26.6578
26.0159
25.4175
24.8379
24.1165
22.5727
21.5343
30.1378
30.0981
29.7965
29.3003
28.6827
28.004
27.307
26.6202
25.9619
25.34
24.7342
24.0026
22.5194
21.5239
30.0844
30.0459
29.7484
29.2569
28.6423
27.962
27.2565
26.5516
25.8619
25.1926
24.5278
23.7684
22.3793
21.4737
30.0175
29.979
29.686
29.2009
28.5905
27.909
27.1936
26.4664
25.737
25.002
24.2354
23.3597
22.2187
21.2422
29.9521
29.9099
29.6202
29.1417
28.5367
27.8552
27.1312
26.3837
25.6194
24.8323
24.0012
23.0864
22.0526
21.0075
29.9064
29.8532
29.5629
29.0898
28.4906
27.8107
27.081
26.3186
25.5291
24.7082
23.8426
22.9131
21.9098
20.8564
29.8982
29.8222
29.5252
29.055
28.4611
27.7841
27.052
26.2805
25.4753
24.6342
23.7496
22.8121
21.8179
20.774
29.939
29.8251
29.5149
29.0447
28.4552
27.7818
27.05
26.2745
25.4612
24.6091
23.7133
22.7687
21.7743
20.7357
30.0199
29.8577
29.5332
29.0628
28.4772
27.8079
27.0786
26.3037
25.4885
24.632
23.7296
22.777
21.7741
20.7277
30.0846
29.8979
29.5742
29.1096
28.5294
27.8644
27.1397
26.3698
25.5593
24.7054
23.8009
22.8393
21.819
20.7477
29.6627
29.6166
29.3794
28.9829
28.4735
27.8985
27.3012
26.7214
26.2002
25.7919
25.5927
25.7347
0.0
0.0
29.6416
29.5965
29.3601
28.9639
28.4534
27.8746
27.2692
26.6744
26.1281
25.6802
25.4236
25.4896
0.0
0.0
29.6039
29.5601
29.3248
28.9291
28.4166
27.8311
27.2109
26.5884
25.9936
25.4643
25.0814
25.0057
0.0
0.0
29.5597
29.5157
29.2807
28.8851
28.3702
27.7767
27.1385
26.4816
25.824
25.1745
24.5211
23.7669
22.3781
21.4746
29.5222
29.4739
29.2369
28.8405
28.3232
27.7221
27.0671
26.3788
25.6681
24.9326
24.1492
23.258
22.1632
21.1375
29.5065
29.4464
29.2029
28.804
28.2846
27.6779
27.01
26.2984
25.5508
24.7642
23.9236
23.0028
21.9839
20.9203
29.5259
29.4424
29.1867
28.7832
28.2621
27.6522
26.9765
26.2502
25.4802
24.6653
23.7974
22.8654
21.8646
20.8076
29.5853
29.4647
29.1917
28.7826
28.2609
27.6507
26.9724
26.2394
25.4581
24.6286
23.7462
22.8059
21.8069
20.7564
29.6696
29.504
29.215
28.8033
28.2838
27.677
27.0011
26.2686
25.4853
24.6506
23.7607
22.8113
21.8031
20.7441
29.7225
29.5362
29.2478
28.843
28.3314
27.7323
27.0643
26.34
25.5639
24.7336
23.842
22.8825
21.854
20.7656
29.3702
29.3139
29.1077
28.7669
28.3226
27.8137
27.2825
26.7747
26.345
26.0687
26.0635
26.5192
0.0
0.0
29.3534
29.2983
29.0922
28.7504
28.3034
27.7889
27.247
26.7202
26.2583
25.9306
25.8484
26.1925
0.0
0.0
29.3242
29.2707
29.0642
28.7204
28.2685
27.7437
27.1823
26.6202
26.0965
25.663
25.4136
25.478
0.0
0.0
29.292
29.2385
29.0304
28.6833
28.225
27.6875
27.102
26.4962
25.8927
25.3054
24.7192
23.9958
22.5133
21.5259
29.2691
29.2115
28.9987
28.6469
28.1816
27.6316
27.0233
26.3775
25.7069
25.0101
24.2595
23.3765
22.2386
21.1906
29.2686
29.1994
28.9775
28.619
28.147
27.5867
26.9604
26.2848
25.5682
24.8076
23.9853
23.0689
22.0356
20.9549
29.3011
29.2089
28.9725
28.6058
28.1282
27.5609
26.9232
26.2287
25.4844
24.6891
23.8337
22.9052
21.8982
20.8286
29.3681
29.24
28.985
28.6102
28.1294
27.5597
26.9172
26.214
25.4559
24.6432
23.771
22.8337
21.8306
20.7703
29.4514
29.2811
29.0101
28.6317
28.1525
27.5858
26.9458
26.2431
25.4827
24.6643
23.7836
22.8367
21.8241
20.7552
29.4959
29.3079
29.0375
28.6667
28.197
27.6403
27.0107
26.3184
25.5672
24.7543
23.8724
22.9144
21.8794
20.7776
29.2357
29.1732
28.9793
28.663
28.249
27.7724
27.2747
26.8047
26.4227
26.2121
26.296
26.8596
0.0
0.0
29.2208
29.1595
28.9655
28.6477
28.2302
27.747
27.2373
26.746
26.3283
26.0602
26.0579
26.4961
0.0
0.0
29.1954
29.1358
28.9408
28.6198
28.1961
27.7007
27.169
26.6384
26.1519
25.7661
25.578
25.71
0.0
0.0
29.1683
29.109
28.9114
28.5857
28.1536
27.6433
27.0843
26.5051
25.9301
25.3744
24.8193
24.1063
22.5538
21.5301
29.1516
29.0884
28.8852
28.5529
28.1117
27.5864
27.0015
26.3778
25.7283
25.0518
24.317
23.436
22.2732
21.2052
29.1575
29.0827
28.8694
28.5288
28.0788
27.5409
26.9354
26.2784
25.5781
24.8312
24.0182
23.1032
22.0609
20.9679
29.1952
29.0978
28.8691
28.5188
28.0615
27.5149
26.896
26.2179
25.4871
24.7021
23.8533
22.9263
21.9154
20.838
29.2647
29.1322
28.8846
28.5252
28.0636
27.5135
26.889
26.2009
25.4551
24.6512
23.7843
22.8486
21.8432
20.7771
29.3466
29.1736
28.9101
28.5468
28.0866
27.5395
26.9174
26.2299
25.4816
24.6717
23.796
22.8503
21.8354
20.761
29.387
29.1977
28.9349
28.5796
28.1296
27.5936
26.9832
26.3073
25.5692
24.7656
23.8888
22.9316
21.8929
20.7837
29.2359
29.1733
28.9795
28.6632
28.2492
27.7726
27.275
26.805
26.423
26.2125
26.2964
26.8595
0.0
0.0
29.221
29.1597
28.9657
28.6478
28.2304
27.7472
27.2375
26.7464
26.3288
26.061
26.0593
26.4992
0.0
0.0
29.1956
29.136
28.941
28.62
28.1963
27.701
27.1693
26.6388
26.1525
25.7671
25.58
25.7149
0.0
0.0
29.1685
29.1092
28.9116
28.5859
28.1538
27.6435
27.0846
26.5055
25.9307
25.3752
24.8206
24.1082
22.5548
21.5305
29.1518
29.0886
28.8854
28.5531
28.112
27.5866
27.0018
26.3781
25.7288
25.0524
24.3179
23.437
22.274
21.2059
29.1577
29.0829
28.8696
28.529
28.079
27.5411
26.9357
26.2787
25.5785
24.8317
24.0188
23.1039
22.0616
20.9686
29.1954
29.098
28.8693
28.519
28.0617
27.5151
26.8963
26.2182
25.4874
24.7026
23.8538
22.9269
21.916
20.8386
29.2649
29.1324
28.8848
28.5254
28.0638
27.5137
26.8892
26.2012
25.4554
24.6516
23.7848
22.8491
21.8437
20.7777
29.3468
29.1738
28.9103
28.547
28.0868
27.5397
26.9177
26.2303
25.482
24.6721
23.7965
22.8508
21.836
20.7616
29.3872
29.1979
28.9351
28.5798
28.1298
27.5939
26.9834
26.3076
25.5696
24.766
23.8894
22.9322
21.8936
20.7844
29.3708
29.3144
29.1082
28.7674
28.3231
27.8143
27.2833
26.7757
26.3461
26.07
26.0648
26.5193
0.0
0.0
29.354
29.2988
29.0927
28.7509
28.304
27.7896
27.2478
26.7213
26.2598
25.9329
25.8523
26.2005
0.0
0.0
29.3248
29.2712
29.0648
28.721
28.2691
27.7444
27.1831
26.6213
26.0982
25.6657
25.4191
25.491
0.0
0.0
29.2926
29.2391
29.0309
28.6839
28.2256
27.6882
27.1029
26.4973
25.8943
25.3077
24.7228
24.0012
22.5166
21.528
29.2697
29.2121
28.9993
28.6474
28.1822
27.6323
27.0241
26.3786
25.7083
25.012
24.2619
23.3795
22.2412
21.1929
29.2693
29.2
28.9781
28.6196
28.1477
27.5874
26.9612
26.2858
25.5694
24.8091
23.9871
23.071
22.0377
20.957
29.3018
29.2095
28.9731
28.6064
28.1288
27.5616
26.924
26.2297
25.4855
24.6904
23.8352
22.9069
21.9
20.8305
29.3688
29.2406
28.9856
28.6108
28.1301
27.5604
26.918
26.2149
25.457
24.6444
23.7724
22.8352
21.8323
20.772
29.452
29.2817
29.0107
28.6323
28.1531
27.5865
26.9466
26.244
25.4838
24.6655
23.785
22.8382
21.8258
20.757
29.4966
29.3085
29.0381
28.6674
28.1977
27.6411
27.0115
26.3193
25.5684
24.7557
23.874
22.9161
21.8813
20.7796
29.6637
29.6174
29.3802
28.9838
28.4744
27.8995
27.3025
26.7229
26.2021
25.7941
25.595
25.7352
0.0
0.0
29.6425
29.5973
29.3609
28.9648
28.4543
27.8757
27.2706
26.6761
26.1304
25.6835
25.4289
25.4991
0.0
0.0
29.6049
29.561
29.3257
28.93
28.4176
27.8322
27.2123
26.5901
25.996
25.4681
25.0884
25.0219
0.0
0.0
29.5607
29.5166
29.2816
28.886
28.3712
27.7778
27.1398
26.4833
25.8263
25.1779
24.5261
23.7743
22.3839
21.4796
29.5232
29.4749
29.2378
28.8414
28.3242
27.7233
27.0684
26.3805
25.6702
24.9353
24.1528
23.2624
22.1675
21.1417
29.5075
29.4474
29.2038
28.8049
28.2856
27.679
27.0113
26.2999
25.5527
24.7665
23.9264
23.006
21.9873
20.9238
29.5269
29.4434
29.1876
28.7841
28.2631
27.6533
26.9778
26.2517
25.482
24.6674
23.7998
22.868
21.8675
20.8106
29.5864
29.4657
29.1926
28.7836
28.2619
27.6519
26.9737
26.2409
25.4598
24.6305
23.7485
22.8084
21.8096
20.7592
29.6707
29.505
29.216
28.8043
28.2849
27.6781
27.0024
26.2701
25.487
24.6526
23.7629
22.8138
21.8058
20.7469
29.7235
29.5372
29.2488
28.844
28.3325
27.7335
27.0657
26.3416
25.5658
24.7357
23.8445
22.8852
21.857
20.7687
30.1683
30.1275
29.8235
29.3248
28.7059
28.0284
27.3363
26.6597
26.0183
25.4206
24.8418
24.1215
22.5804
21.544
30.1391
30.0993
29.7976
29.3014
28.684
28.0055
27.3088
26.6224
25.9647
25.3438
24.7396
24.0107
22.5308
21.537
30.0857
30.0471
29.7495
29.2581
28.6436
27.9635
27.2583
26.5538
25.8649
25.1967
24.534
23.7782
22.3929
21.4885
30.0188
29.9802
29.6872
29.2021
28.5918
27.9105
27.1954
26.4686
25.7399
25.0058
24.2406
23.3667
22.2267
21.2511
29.9535
29.9112
29.6214
29.1429
28.538
27.8567
27.133
26.3859
25.622
24.8355
24.0054
23.0915
22.0583
21.0136
29.9078
29.8544
29.5641
29.0911
28.4919
27.8122
27.0828
26.3207
25.5316
24.7111
23.846
22.9171
21.9142
20.861
29.8996
29.8235
29.5265
29.0563
28.4625
27.7856
27.0537
26.2825
25.4776
24.6369
23.7527
22.8155
21.8216
20.778
29.9404
29.8264
29.5162
29.046
28.4566
27.7833
27.0517
26.2765
25.4635
24.6116
23.7162
22.7719
21.7778
20.7394
30.0213
29.859
29.5345
29.0641
28.4787
27.8094
27.0804
26.3057
25.4908
24.6347
23.7326
22.7803
21.7776
20.7314
30.0861
29.8993
29.5756
29.111
28.5308
27.866
27.1415
26.3719
25.5617
24.7082
23.8041
22.8428
21.8229
20.7518
30.9882
30.9243
30.4806
29.8032
29.0152
28.1955
27.3861
26.6039
25.8495
25.1083
24.3366
23.4382
22.2711
21.1996
30.9449
30.8825
30.444
29.7731
28.9902
28.173
27.3626
26.5754
25.8121
25.0589
24.2767
23.3792
22.2368
21.1862
30.8637
30.8036
30.3752
29.7165
28.9436
28.1316
27.3196
26.5234
25.743
24.9659
24.1602
23.259
22.1617
21.1352
30.7566
30.6983
30.2832
29.6415
28.883
28.0787
27.2658
26.4587
25.657
24.8482
24.0061
23.0867
22.052
21.0074
30.6408
30.5818
30.181
29.5592
28.8182
28.024
27.2119
26.3954
25.5742
24.7378
23.8671
22.9364
21.9312
20.8811
30.5389
30.4728
30.0843
29.4826
28.7601
27.9777
27.1684
26.3455
25.5099
24.6538
23.7642
22.8265
21.8335
20.7926
30.4758
30.3914
30.0092
29.4247
28.7194
27.9487
27.1436
26.3176
25.4726
24.6036
23.7018
22.7587
21.7704
20.7405
30.4738
30.3545
29.9701
29.3972
28.7055
27.9444
27.1436
26.3166
25.4664
24.5895
23.6795
22.7307
21.7413
20.7155
30.5368
30.3683
29.9758
29.409
28.7251
27.9698
27.1719
26.3454
25.4935
24.6128
23.6972
22.7415
21.7446
20.712
30.6144
30.418
30.0275
29.4652
28.7829
28.0276
27.2301
26.405
25.555
24.6751
23.7571
22.7936
21.7826
20.73
32.3227
32.138
31.4021
30.4198
29.3833
28.3818
27.4419
26.5593
25.7156
24.8832
24.0235
23.0864
22.037
20.9437
32.2548
32.0739
31.3494
30.3799
29.3539
28.359
27.4217
26.538
25.6903
24.8523
23.9884
23.0528
22.0135
20.9328
32.1252
31.9514
31.2489
30.3043
29.2987
28.3168
27.3847
26.4992
25.6439
24.795
23.9219
22.9868
21.9641
20.9014
31.947
31.7827
31.1115
30.2022
29.2256
28.2623
27.3381
26.451
25.5863
24.7233
23.8366
22.8987
21.894
20.8423
31.7407
31.5863
30.9528
30.0866
29.1453
28.2051
27.2914
26.4039
25.5307
24.6543
23.7551
22.8139
21.8208
20.7814
31.5343
31.3868
30.7932
29.9735
29.0705
28.1554
27.2537
26.3675
25.4877
24.6008
23.6916
22.7473
21.7611
20.7347
31.3633
31.2138
30.656
29.8806
29.0143
28.1229
27.233
26.3489
25.4647
24.5699
23.6532
22.7053
21.722
20.7053
31.2672
31.0988
30.566
29.8259
28.9886
28.1159
27.2349
26.3527
25.4655
24.565
23.6421
22.6897
21.705
20.6911
31.2744
31.0666
30.5446
29.825
29.0037
28.1399
27.2626
26.3806
25.4914
24.5874
23.6596
22.7013
21.7104
20.6907
31.3559
31.122
30.6066
29.8906
29.0667
28.198
27.3166
26.4325
25.5427
24.6379
23.7073
22.7426
21.7405
20.7054
34.5687
33.9629
32.6196
31.1339
29.7564
28.5444
27.4777
26.5142
25.6111
24.7287
23.8301
22.8823
21.8671
20.7935
34.4575
33.8636
32.5443
31.0818
29.7218
28.521
27.46
26.4982
25.5939
24.7091
23.8089
22.8623
21.8522
20.7868
34.2416
33.6715
32.3992
30.9823
29.6566
28.4776
27.4276
26.4689
25.5626
24.6732
23.7693
22.824
21.8223
20.7702
33.9361
33.4008
32.1969
30.8458
29.5692
28.4211
27.387
26.433
25.5241
24.6287
23.7194
22.7743
21.7816
20.7431
33.5649
33.0739
31.9565
30.6874
29.4715
28.3612
27.3465
26.3987
25.4874
24.5857
23.6707
22.7249
21.7394
20.7143
33.163
32.7226
31.7038
30.527
29.378
28.3087
27.3147
26.3736
25.4606
24.553
23.6324
22.6851
21.7044
20.6909
32.7797
32.3892
31.4716
30.3879
29.3045
28.2741
27.2991
26.3639
25.4491
24.5362
23.6102
22.6602
21.6816
20.6756
32.4804
32.1267
31.2986
30.2954
29.2662
28.266
27.3046
26.3728
25.4557
24.538
23.6066
22.6527
21.6726
20.6686
32.3383
31.993
31.2258
30.2743
29.2756
28.2895
27.3325
26.4002
25.4803
24.5585
23.6226
22.6637
21.6785
20.67
32.3834
32.0352
31.2911
30.346
29.3411
28.3455
27.3806
26.4433
25.5206
24.5971
23.6583
22.6943
21.7008
20.6809
38.5412
36.6226
34.0581
31.8056
30.0194
28.6088
27.4509
26.446
25.5213
24.624
23.7153
22.7675
21.7658
20.7104
38.3506
36.4701
33.9546
31.7412
29.981
28.5857
27.4356
26.4336
25.509
24.6106
23.7013
22.7544
21.7562
20.7068
37.9768
36.1723
33.7539
31.6176
29.9083
28.5427
27.4077
26.4113
25.4867
24.5862
23.6752
22.7298
21.7374
20.6984
37.4362
35.7453
33.4701
31.4462
29.8104
28.4872
27.3734
26.3846
25.4601
24.5565
23.6428
22.6983
21.7126
20.6856
36.7567
35.2157
33.1255
31.2444
29.7002
28.4291
27.3405
26.3608
25.4362
24.5286
23.6113
22.667
21.687
20.672
35.9811
34.6229
32.7519
31.0357
29.5943
28.3796
27.3176
26.3466
25.4212
24.5089
23.5872
22.6417
21.6658
20.6606
35.1755
34.0248
32.3926
30.8492
29.5111
28.3502
27.3117
26.3471
25.4195
24.5017
23.5747
22.6266
21.6522
20.6533
34.4415
33.503
32.1033
30.7182
29.4681
28.349
27.3262
26.3638
25.4322
24.5083
23.5755
22.6233
21.6477
20.6506
33.9275
33.1666
31.9501
30.6757
29.4779
28.3781
27.3588
26.3935
25.4566
24.5271
23.5891
22.6322
21.6527
20.6526
33.8012
33.1427
32.0017
30.7474
29.5433
28.4307
27.4004
26.4278
25.4867
24.5546
23.6138
22.6531
21.6677
20.6598
45.8899
40.0771
35.3029
32.1034
29.9748
28.4702
27.3097
26.3295
25.4322
24.5563
23.6615
22.7216
21.724
20.6705
45.5497
39.8536
35.1739
32.0331
29.9375
28.4501
27.2975
26.3198
25.4222
24.5452
23.6496
22.7107
21.7165