# vtk DataFile Version 2.0
I need something to put here
ASCII

DATASET STRUCTURED_GRID
DIMENSIONS 14 11 21
POINTS 3234 float
1.400000 0.000000 0.000000
1.500000 0.000000 0.000000
1.600000 0.000000 0.000000
1.700000 0.000000 0.000000
1.800000 0.000000 0.000000
1.900000 0.000000 0.000000
2.000000 0.000000 0.000000
2.100000 0.000000 0.000000
2.200000 0.000000 0.000000
2.300000 0.000000 0.000000
2.400000 0.000000 0.000000
2.500000 0.000000 0.000000
2.600000 0.000000 0.000000
2.700000 0.000000 0.000000
1.400000 0.100000 0.000000
1.500000 0.100000 0.000000
1.600000 0.100000 0.000000
1.700000 0.100000 0.000000
1.800000 0.100000 0.000000
1.900000 0.100000 0.000000
2.000000 0.100000 0.000000
2.100000 0.100000 0.000000
2.200000 0.100000 0.000000
2.300000 0.100000 0.000000
2.400000 0.100000 0.000000
2.500000 0.100000 0.000000
2.600000 0.100000 0.000000
2.700000 0.100000 0.000000
1.400000 0.200000 0.000000
1.500000 0.200000 0.000000
1.600000 0.200000 0.000000
1.700000 0.200000 0.000000
1.800000 0.200000 0.000000
1.900000 0.200000 0.000000
2.000000 0.200000 0.000000
2.100000 0.200000 0.000000
2.200000 0.200000 0.000000
2.300000 0.200000 0.000000
2.400000 0.200000 0.000000
2.500000 0.200000 0.000000
2.600000 0.200000 0.000000
2.700000 0.200000 0.000000
1.400000 0.300000 0.000000
1.500000 0.300000 0.000000
1.600000 0.300000 0.000000
1.700000 0.300000 0.000000
1.800000 0.300000 0.000000
1.900000 0.300000 0.000000
2.000000 0.300000 0.000000
2.100000 0.300000 0.000000
2.200000 0.300000 0.000000
2.300000 0.300000 0.000000
2.400000 0.300000 0.000000
2.500000 0.300000 0.000000
2.600000 0.300000 0.000000
2.700000 0.300000 0.000000
1.400000 0.400000 0.000000
1.500000 0.400000 0.000000
1.600000 0.400000 0.000000
1.700000 0.400000 0.000000
1.800000 0.400000 0.000000
1.900000 0.400000 0.000000
2.000000 0.400000 0.000000
2.100000 0.400000 0.000000
2.200000 0.400000 0.000000
2.300000 0.400000 0.000000
2.400000 0.400000 0.000000
2.500000 0.400000 0.000000
2.600000 0.400000 0.000000
2.700000 0.400000 0.000000
1.400000 0.500000 0.000000
1.500000 0.500000 0.000000
1.600000 0.500000 0.000000
1.700000 0.500000 0.000000
1.800000 0.500000 0.000000
1.900000 0.500000 0.000000
2.000000 0.500000 0.000000
2.100000 0.500000 0.000000
2.200000 0.500000 0.000000
2.300000 0.500000 0.000000
2.400000 0.500000 0.000000
2.500000 0.500000 0.000000
2.600000 0.500000 0.000000
2.700000 0.500000 0.000000
1.400000 0.600000 0.000000
1.500000 0.600000 0.000000
1.600000 0.600000 0.000000
1.700000 0.600000 0.000000
1.800000 0.600000 0.000000
1.900000 0.600000 0.000000
2.000000 0.600000 0.000000
2.100000 0.600000 0.000000
2.200000 0.600000 0.000000
2.300000 0.600000 0.000000
2.400000 0.600000 0.000000
2.500000 0.600000 0.000000
2.600000 0.600000 0.000000
2.700000 0.600000 0.000000
1.400000 0.700000 0.000000
1.500000 0.700000 0.000000
1.600000 0.700000 0.000000
1.700000 0.700000 0.000000
1.800000 0.700000 0.000000
1.900000 0.700000 0.000000
2.000000 0.700000 0.000000
2.100000 0.700000 0.000000
2.200000 0.700000 0.000000
2.300000 0.700000 0.000000
2.400000 0.700000 0.000000
2.500000 0.700000 0.000000
2.600000 0.700000 0.000000
2.700000 0.700000 0.000000
1.400000 0.800000 0.000000
1.500000 0.800000 0.000000
1.600000 0.800000 0.000000
1.700000 0.800000 0.000000
1.800000 0.800000 0.000000
1.900000 0.800000 0.000000
2.000000 0.800000 0.000000
2.100000 0.800000 0.000000
2.200000 0.800000 0.000000
2.300000 0.800000 0.000000
2.400000 0.800000 0.000000
2.500000 0.800000 0.000000
2.600000 0.800000 0.000000
2.700000 0.800000 0.000000
1.400000 0.900000 0.000000
1.500000 0.900000 0.000000
1.600000 0.900000 0.000000
1.700000 0.900000 0.000000
1.800000 0.900000 0.000000
1.900000 0.900000 0.000000
2.000000 0.900000 0.000000
2.100000 0.900000 0.000000
2.200000 0.900000 0.000000
2.300000 0.900000 0.000000
2.400000 0.900000 0.000000
2.500000 0.900000 0.000000
2.600000 0.900000 0.000000
2.700000 0.900000 0.000000
1.400000 1.000000 0.000000
1.500000 1.000000 0.000000
1.600000 1.000000 0.000000
1.700000 1.000000 0.000000
1.800000 1.000000 0.000000
1.900000 1.000000 0.000000
2.000000 1.000000 0.000000
2.100000 1.000000 0.000000
2.200000 1.000000 0.000000
2.300000 1.000000 0.000000
2.400000 1.000000 0.000000
2.500000 1.000000 0.000000
2.600000 1.000000 0.000000
2.700000 1.000000 0.000000
1.400000 0.000000 0.100000
1.500000 0.000000 0.100000
1.600000 0.000000 0.100000
1.700000 0.000000 0.100000
1.800000 0.000000 0.100000
1.900000 0.000000 0.100000
2.000000 0.000000 0.100000
2.100000 0.000000 0.100000
2.200000 0.000000 0.100000
2.300000 0.000000 0.100000
2.400000 0.000000 0.100000
2.500000 0.000000 0.100000
2.600000 0.000000 0.100000
2.700000 0.000000 0.100000
1.400000 0.100000 0.100000
1.500000 0.100000 0.100000
1.600000 0.100000 0.100000
1.700000 0.100000 0.100000
1.800000 0.100000 0.100000
1.900000 0.100000 0.100000
2.000000 0.100000 0.100000
2.100000 0.100000 0.100000
2.200000 0.100000 0.100000
2.300000 0.100000 0.100000
2.400000 0.100000 0.100000
2.500000 0.100000 0.100000
2.600000 0.100000 0.100000
2.700000 0.100000 0.100000
1.400000 0.200000 0.100000
1.500000 0.200000 0.100000
1.600000 0.200000 0.100000
1.700000 0.200000 0.100000
1.800000 0.200000 0.100000
1.900000 0.200000 0.100000
2.000000 0.200000 0.100000
2.100000 0.200000 0.100000
2.200000 0.200000 0.100000
2.300000 0.200000 0.100000
2.400000 0.200000 0.100000
2.500000 0.200000 0.100000
2.600000 0.200000 0.100000
2.700000 0.200000 0.100000
1.400000 0.300000 0.100000
1.500000 0.300000 0.100000
1.600000 0.300000 0.100000
1.700000 0.300000 0.100000
1.800000 0.300000 0.100000
1.900000 0.300000 0.100000
2.000000 0.300000 0.100000
2.100000 0.300000 0.100000
2.200000 0.300000 0.100000
2.300000 0.300000 0.100000
2.400000 0.300000 0.100000
2.500000 0.300000 0.100000
2.600000 0.300000 0.100000
2.700000 0.300000 0.100000
1.400000 0.400000 0.100000
1.500000 0.400000 0.100000
1.600000 0.400000 0.100000
1.700000 0.400000 0.100000
1.800000 0.400000 0.100000
1.900000 0.400000 0.100000
2.000000 0.400000 0.100000
2.100000 0.400000 0.100000
2.200000 0.400000 0.100000
2.300000 0.400000 0.100000
2.400000 0.400000 0.100000
2.500000 0.400000 0.100000
2.600000 0.400000 0.100000
2.700000 0.400000 0.100000
1.400000 0.500000 0.100000
1.500000 0.500000 0.100000
1.600000 0.500000 0.100000
1.700000 0.500000 0.100000
1.800000 0.500000 0.100000
1.900000 0.500000 0.100000
2.000000 0.500000 0.100000
2.100000 0.500000 0.100000
2.200000 0.500000 0.100000
2.300000 0.500000 0.100000
2.400000 0.500000 0.100000
2.500000 0.500000 0.100000
2.600000 0.500000 0.100000
2.700000 0.500000 0.100000
1.400000 0.600000 0.100000
1.500000 0.600000 0.100000
1.600000 0.600000 0.100000
1.700000 0.600000 0.100000
1.800000 0.600000 0.100000
1.900000 0.600000 0.100000
2.000000 0.600000 0.100000
2.100000 0.600000 0.100000
2.200000 0.600000 0.100000
2.300000 0.600000 0.100000
2.400000 0.600000 0.100000
2.500000 0.600000 0.100000
2.600000 0.600000 0.100000
2.700000 0.600000 0.100000
1.400000 0.700000 0.100000
1.500000 0.700000 0.100000
1.600000 0.700000 0.100000
1.700000 0.700000 0.100000
1.800000 0.700000 0.100000
1.900000 0.700000 0.100000
2.000000 0.700000 0.100000
2.100000 0.700000 0.100000
2.200000 0.700000 0.100000
2.300000 0.700000 0.100000
2.400000 0.700000 0.100000
2.500000 0.700000 0.100000
2.600000 0.700000 0.100000
2.700000 0.700000 0.100000
1.400000 0.800000 0.100000
1.500000 0.800000 0.100000
1.600000 0.800000 0.100000
1.700000 0.800000 0.100000
1.800000 0.800000 0.100000
1.900000 0.800000 0.100000
2.000000 0.800000 0.100000
2.100000 0.800000 0.100000
2.200000 0.800000 0.100000
2.300000 0.800000 0.100000
2.400000 0.800000 0.100000
2.500000 0.800000 0.100000
2.600000 0.800000 0.100000
2.700000 0.800000 0.100000
1.400000 0.900000 0.100000
1.500000 0.900000 0.100000
1.600000 0.900000 0.100000
1.700000 0.900000 0.100000
1.800000 0.900000 0.100000
1.900000 0.900000 0.100000
2.000000 0.900000 0.100000
2.100000 0.900000 0.100000
2.200000 0.900000 0.100000
2.300000 0.900000 0.100000
2.400000 0.900000 0.100000
2.500000 0.900000 0.100000
2.600000 0.900000 0.100000
2.700000 0.900000 0.100000
1.400000 1.000000 0.100000
1.500000 1.000000 0.100000
1.600000 1.000000 0.100000
1.700000 1.000000 0.100000
1.800000 1.000000 0.100000
1.900000 1.000000 0.100000
2.000000 1.000000 0.100000
2.100000 1.000000 0.100000
2.200000 1.000000 0.100000
2.300000 1.000000 0.100000
2.400000 1.000000 0.100000
2.500000 1.000000 0.100000
2.600000 1.000000 0.100000
2.700000 1.000000 0.100000
1.400000 0.000000 0.200000
1.500000 0.000000 0.200000
1.600000 0.000000 0.200000
1.700000 0.000000 0.200000
1.800000 0.000000 0.200000
1.900000 0.000000 0.200000
2.000000 0.000000 0.200000
2.100000 0.000000 0.200000
2.200000 0.000000 0.200000
2.300000 0.000000 0.200000
2.400000 0.000000 0.200000
2.500000 0.000000 0.200000
2.600000 0.000000 0.200000
2.700000 0.000000 0.200000
1.400000 0.100000 0.200000
1.500000 0.100000 0.200000
1.600000 0.100000 0.200000
1.700000 0.100000 0.200000
1.800000 0.100000 0.200000
1.900000 0.100000 0.200000
2.000000 0.100000 0.200000
2.100000 0.100000 0.200000
2.200000 0.100000 0.200000
2.300000 0.100000 0.200000
2.400000 0.100000 0.200000
2.500000 0.100000 0.200000
2.600000 0.100000 0.200000
2.700000 0.100000 0.200000
1.400000 0.200000 0.200000
1.500000 0.200000 0.200000
1.600000 0.200000 0.200000
1.700000 0.200000 0.200000
1.800000 0.200000 0.200000
1.900000 0.200000 0.200000
2.000000 0.200000 0.200000
2.100000 0.200000 0.200000
2.200000 0.200000 0.200000
2.300000 0.200000 0.200000
2.400000 0.200000 0.200000
2.500000 0.200000 0.200000
2.600000 0.200000 0.200000
2.700000 0.200000 0.200000
1.400000 0.300000 0.200000
1.500000 0.300000 0.200000
1.600000 0.300000 0.200000
1.700000 0.300000 0.200000
1.800000 0.300000 0.200000
1.900000 0.300000 0.200000
2.000000 0.300000 0.200000
2.100000 0.300000 0.200000
2.200000 0.300000 0.200000
2.300000 0.300000 0.200000
2.400000 0.300000 0.200000
2.500000 0.300000 0.200000
2.600000 0.300000 0.200000
2.700000 0.300000 0.200000
1.400000 0.400000 0.200000
[...]
CELL_DATA 2600
SCALARS pressure float 1
LOOKUP_TABLE default
20.2806
19.1974
18.1261
17.0808
16.0718
15.1051
14.1828
13.3034
12.4636
11.6581
10.8814
10.128
9.39271
20.28
19.1964
18.1247
17.0791
16.0701
15.1035
14.1815
13.3025
12.463
11.6579
10.8814
10.1282
9.39301
20.2769
19.1875
18.1106
17.0612
16.0503
15.0835
14.1626
13.2857
12.4487
11.6462
10.8723
10.1213
9.38794
20.2717
19.1707
18.0835
17.0272
16.0128
15.0458
14.127
13.2539
12.4217
11.6241
10.8549
10.108
9.37808
20.2647
19.1461
18.0442
16.9781
15.9591
14.9919
14.0765
13.209
12.3835
11.593
10.8304
10.0893
9.36423
20.2564
19.1152
17.995
16.9173
15.8931
14.9262
14.0151
13.1546
12.3375
11.5556
10.8011
10.067
9.34774
20.247
19.0807
17.9409
16.851
15.8218
14.8556
13.9494
13.0968
12.2889
11.5163
10.7704
10.0437
9.33056
20.2374
19.0471
17.8888
16.7881
15.7545
14.7893
13.8882
13.0431
12.2439
11.4801
10.7422
10.0224
9.31492
20.2293
19.02
17.8475
16.7384
15.7018
14.7377
13.8407
13.0016
12.2093
11.4523
10.7206
10.0062
9.30299
20.2247
19.005
17.8246
16.711
15.6728
14.7093
13.8146
12.979
12.1904
11.4372
10.7089
9.9974
9.29654
20.2831
19.198
18.1253
17.0793
16.07
15.1033
14.1812
13.3023
12.4628
11.6577
10.8813
10.1281
9.39292
20.2825
19.2027
18.1348
17.0925
16.0857
15.1204
14.1984
13.3186
12.4777
11.6707
10.8924
10.1372
9.40024
20.2803
19.199
18.1298
17.0867
16.0799
15.1151
14.194
13.3154
12.4755
11.6695
10.8919
10.1372
9.40064
20.2766
19.1874
18.1114
17.0639
16.0551
15.0905
14.1712
13.2953
12.4588
11.6561
10.8816
10.1297
9.39524
20.2716
19.1686
18.0812
17.0263
16.0142
15.0497
14.1331
13.2617
12.4304
11.6331
10.8637
10.1161
9.38529
20.2658
19.1441
18.0419
16.9778
15.9617
14.9974
14.0844
13.2186
12.394
11.6036
10.8406
10.0986
9.37237
20.2592
19.1164
17.998
16.9241
15.9039
14.9402
14.0312
13.1718
12.3546
11.5718
10.8156
10.0796
9.3584
20.2525
19.0891
17.9554
16.8727
15.849
14.8861
13.9813
13.128
12.3179
11.5421
10.7925
10.0621
9.34546
20.2468
19.0671
17.9215
16.832
15.8058
14.8438
13.9423
13.094
12.2894
11.5192
10.7747
10.0486
9.33553
20.2435
19.055
17.9029
16.8097
15.7821
14.8206
13.921
13.0754
12.2739
11.5068
10.765
10.0413
9.33014
20.29
19.1955
18.1152
17.0638
16.0515
15.0841
14.1627
13.2856
12.4486
11.646
10.8721
10.1211
9.38778
20.289
19.2047
18.1334
17.089
16.0813
15.1159
14.1945
13.3156
12.4756
11.6695
10.8918
10.1372
9.4006
20.2878
19.2048
18.1349
17.0921
16.086
15.122
14.2015
13.3231
12.4832
11.6768
10.8985
10.1431
9.40566
20.2859
19.1959
18.1208
17.0753
16.0686
15.1056
14.1872
13.3114
12.4741
11.6702
10.8941
10.1403
9.40411
20.2831
19.1785
18.0926
17.0412
16.0326
15.0706
14.1553
13.284
12.4517
11.6527
10.8808
10.1307
9.39737
20.2795
19.1535
18.0528
16.9938
15.9826
15.0219
14.111
13.2457
12.4201
11.6276
10.8617
10.1165
9.38716
20.275
19.1229
18.0059
16.9391
15.9254
14.9666
14.0606
13.2024
12.3845
11.5994
10.84
10.1004
9.37546
20.2694
19.0911
17.9588
16.8853
15.8697
14.9129
14.0122
13.1609
12.3505
11.5725
10.8194
10.085
9.36432
20.2635
19.0647
17.9205
16.8419
15.8251
14.8703
13.9739
13.1282
12.3238
11.5515
10.8034
10.0731
9.35566
20.2599
19.0501
17.8992
16.8177
15.8003
14.8467
13.9528
13.1103
12.3092
11.54
10.7946
10.0666
9.35094
20.2987
19.1882
18.0945
17.0339
16.0168
15.048
14.1282
13.2545
12.4219
11.6241
10.8548
10.1078
9.37792
20.2971
19.2013
18.1207
17.0699
16.059
15.0929
14.1726
13.2962
12.4592
11.6564
10.8817
10.1297
9.39522
20.2968
19.2036
18.1261
17.0789
16.071
15.1071
14.1882
13.312
12.4745
11.6704
10.8942
10.1404
9.40414
20.2965
19.1942
18.1113
17.0626
16.0557
15.094
14.178
13.305
12.4703
11.6686
10.8941
10.1413
9.4057
20.2957
19.1722
18.0768
17.0235
16.0163
15.0575
14.1462
13.279
12.4503
11.6539
10.8838
10.1345
9.40139
20.2938
19.1366
18.0242
16.9657
15.9582
15.0028
14.0983
13.2393
12.419
11.6302
10.8665
10.1223
9.39306
20.2898
19.0881
17.9583
16.8964
15.8887
14.9377
14.0413
13.1923
12.382
11.6021
10.8458
10.1075
9.38278
20.2818
19.0326
17.8887
16.826
15.8185
14.8723
13.9846
13.146
12.3457
11.5747
10.8257
10.0931
9.37266
20.2709
18.9862
17.8303
16.7668
15.7605
14.819
13.9389
13.1089
12.3169
11.553
10.8098
10.0817
9.36467
20.2637
18.9608
17.7978
16.7333
15.7278
14.7891
13.9135
13.0884
12.301
11.5411
10.801
10.0754
9.36028
20.3065
19.1741
18.0625
16.9898
15.9664
14.9964
14.0791
13.2105
12.3843
11.5933
10.8305
10.0893
9.36413
20.3047
19.1917
18.0969
17.0369
16.0212
15.0542
14.136
13.2634
12.4314
11.6337
10.864
10.1162
9.38535
20.3052
19.1944
18.1038
17.0489
16.0378
15.0741
14.1577
13.2855
12.4527
11.6533
10.8812
10.1309
9.39749
20.3062
19.18
18.0824
17.0275
16.0191
15.0594
14.1476
13.2799
12.4509
11.6543
10.884
10.1346
9.40149
20.3068
19.1439
18.0311
16.9744
15.9683
15.0138
14.1097
13.2507
12.4299
11.6401
10.8751
10.1295
9.39891
20.3055
19.0792
17.9488
16.8941
15.8904
14.9426
14.0496
13.2034
12.3945
11.6149
10.8578
10.1181
9.39173
20.2979
18.9784
17.8398
16.7965
15.7939
14.8538
13.9752
13.1452
12.3513
11.5839
10.8362
10.1035
9.38215
20.2759
18.849
17.7198
16.6965
15.6916
14.7605
13.8985
13.0863
12.3079
11.553
10.8147
10.0889
9.37243
20.2438
18.7463
17.6154
16.6048
15.6035
14.6824
13.8354
13.0383
12.273
11.5282
10.7975
10.0772
9.36463
20.2243
18.6939
17.5584
16.5523
15.5533
14.6383
13.7999
13.0116
12.2535
11.5144
10.788
10.0707
9.36032
20.3115
19.153
18.0204
16.934
15.9039
14.933
14.0193
13.1572
12.3391
11.5565
10.8015
10.0672
9.34778
20.31
19.1756
18.0639
16.9928
15.9718
15.0041
14.0887
13.2214
12.3958
11.6048
10.8412
10.0989
9.37257
20.3114
19.1769
18.0696
17.0055
15.9908
15.0275
14.1148
13.2482
12.4218
11.6287
10.8624
10.117
9.38742
20.3132
19.1512
18.0349
16.9735
15.9637
15.0067
14.101
13.2412
12.4203
11.6311
10.8671
10.1227
9.3933
20.3136
19.0855
17.9536
16.8976
15.893
14.9445
14.051
13.2043
12.3952
11.6154
10.8582
10.1183
9.39187
20.308
18.9526
17.8184
16.7847
15.7827
14.8444
13.9694
13.1431
12.352
11.5863
10.8394
10.1069
9.38526
20.2775
18.7071
17.6319
16.6551
15.6397
14.7125
13.8641
13.0657
12.2978
11.5496
10.8154
10.0916
9.37584
20.1838
18.3333
17.4253
16.5374
15.4745
14.5637
13.7506
12.985
12.2424
11.5126
10.7911
10.0759
9.36605
20.0628
18.0817
17.2291
16.392
15.3261
14.4376
13.656
12.9185
12.1973
11.4826
10.7715
10.0633
9.3581
20.0043
17.9722
17.1285
16.3091
15.2418
14.3664
13.6029
12.8813
12.1721
11.4659
10.7606
10.0563
9.35369
20.3126
19.1264
17.972
16.8719
15.8356
14.8646
13.9553
13.1005
12.2912
11.5177
10.7712
10.0442
9.33077
20.3124
19.1548
18.0251
16.9429
15.9168
14.9489
14.0371
13.1757
12.3572
11.5734
10.8167
10.0803
9.35876
20.3144
19.1523
18.0272
16.9543
15.9362
14.9741
14.0658
13.2059
12.3869
11.601
10.8411
10.1011
9.37589
20.3153
19.1076
17.9729
16.9072
15.8966
14.9434
14.0453
13.1952
12.384
11.6035
10.8468
10.1081
9.38318
20.3106
18.9884
17.8477
16.8026
15.7986
14.8574
13.9778
13.1471
12.3527
11.5849
10.8369
10.104
9.38246
20.2804
18.7096
17.6341
16.6572
15.6416
14.7141
13.8653
13.0666
12.2985
11.5501
10.8157
10.0918
9.37601
20.1383
18.0648
17.3434
16.5386
15.4172
14.5085
13.7126
12.9618
12.2295
11.506
10.7882
10.0752
9.3664
19.6471
16.7542
17.0984
16.513
15.0859
14.2461
13.5378
12.8493
12.1578
11.4608
10.7602
10.0581
9.35625
19.1247
16.1499
16.7291
16.2297
14.8052
14.0298
13.3925
12.7561
12.0991
11.4241
10.7374
10.0442
9.34795
18.95
15.956
16.5708
16.106
14.6512
13.9103
13.3116
12.704
12.0662
11.4037
10.7248
10.0365
9.34333
20.3104
19.0985
17.9242
16.8121
15.7707
14.8001
13.8954
13.0478
12.247
11.4821
10.7434
10.0231
9.3153
20.3121
19.1325
17.9864
16.8945
15.8641
14.8965
13.9884
13.1328
12.3211
11.5442
10.7939
10.063
9.346
20.3138
19.1246
17.9835
16.9031
15.8825
14.922
14.0186
13.1653
12.3535
11.5746
10.8208
10.086
9.36492
20.3108
19.0551
17.9058
16.8389
15.8281
14.8793
13.9898
13.1497
12.3484
11.5766
10.827
10.0939
9.37324
20.2896
18.8603
17.7289
16.704
15.6977
14.7653
13.9022
13.089
12.31
11.5544
10.8158
10.0896
9.37291
20.1826
18.3333
17.4263
16.5397
15.4774
14.5665
13.7529
12.9867
12.2438
11.5136
10.7918
10.0764
9.36639
19.6306
16.7424
17.0909
16.5107
15.0865
14.2473
13.5389
12.8501
12.1585
11.4613
10.7605
10.0583
9.35642
0.0
0.0
0.0
0.0
14.1117
13.7497
13.2759
12.699
12.0687
11.4076
10.7285
10.0396
9.3458
0.0
0.0
0.0
0.0
13.4864
13.385
13.063
12.5742
11.9949
11.3637
10.7025
10.0244
9.33708
0.0
0.0
0.0
0.0
13.1681
13.1893
12.9461
12.5047
11.9537
11.3393
10.6881
10.0159
9.33223
20.3067
19.0749
17.8856
16.7646
15.7196
14.7497
13.8488
13.0071
12.2129
11.4547
10.7222
10.0071
9.30354
20.3101
19.1137
17.9551
16.8558
15.8225
14.8554
13.9504
13.0995
12.2932
11.5218
10.7764
10.0497
9.33623
20.3109
19.1007
17.9472
16.8614
15.8392
14.8804
13.9812
13.1334
12.3274
11.554
10.8051
10.0742
9.35641
20.3016
19.0103
17.8489
16.7809
15.7712
14.827
13.9449
13.1133
12.3201
11.5552
10.8113
10.0827
9.36539
20.2575
18.7579
17.6251
16.6131
15.6105
14.6882
13.8399
13.0418
12.2755
11.53
10.7989
10.0781
9.36526
20.0596
18.0807
17.2295
16.3943
15.3298
14.4412
13.6592
12.921
12.1992
11.484
10.7725
10.064
9.35859
19.1059
16.1366
16.7198
16.2269
14.8072
14.0322
13.3946
12.7577
12.1003
11.425
10.7381
10.0447
9.34828
0.0
0.0
0.0
0.0
13.492
13.3872
13.0642
12.575
11.9955
11.3642
10.7029
10.0246
9.33724
0.0
0.0
0.0
0.0
12.5963
12.9208
12.7985
12.4244
11.9093
11.3145
10.6742
10.0083
9.32817
0.0
0.0
0.0
0.0
12.1828
12.672
12.6532
12.3407
11.8612
11.2868
10.6583
9.99921
9.32312
20.3042
19.0616
17.8641
16.7383
15.6915
14.7221
13.8234
12.9849
12.1944
11.4399
10.7107
9.99852
9.29723
20.3086
19.1031
17.9376
16.8344
15.7996
14.8329
13.9296
13.0814
12.2781
11.5096
10.7669
10.0426
9.33096
20.3086
19.0873
17.9269
16.8381
15.8152
14.8575
13.9606
13.1159
12.3132
11.5428
10.7965
10.0679
9.3518
20.2951
18.9857
17.8171
16.7481
15.7392
14.7978
13.92
13.0932
12.3045
11.5436
10.8028
10.0766
9.36111
20.2379
18.7058
17.5684
16.5609
15.5608
14.6447
13.805
13.0155
12.2565
11.5166
10.7896
10.0718
9.36106
20.0003
17.9709
17.1288
16.3112
15.2459
14.3707
13.6066
12.8843
12.1744
11.4676
10.7618
10.0572
9.3543
18.9311
15.9428
16.5609
16.1023
14.6539
13.9135
13.3143
12.7062
12.0679
11.4049
10.7257
10.0371
9.34378
0.0
0.0
0.0
0.0
13.1761
13.193
12.9482
12.5062
11.9548
11.3401
10.6887
10.0163
9.33251
0.0
0.0
0.0
0.0
12.1868
12.674
12.6543
12.3414
11.8618
11.2872
10.6586
9.9994
9.32324
0.0
0.0
0.0
0.0
11.7272
12.3976
12.4938
12.25
11.8098
11.2576
10.6418
9.98997
9.31807
20.3045
19.0619
17.8644
16.7386
15.6918
14.7224
13.8236
12.9851
12.1946
11.44
10.7108
9.99861
9.2973
20.309
19.1034
17.9379
16.8347
15.7999
14.8332
13.9298
13.0816
12.2782
11.5097
10.767
10.0427
9.33103
20.3089
19.0876
17.9272
16.8384
15.8154
14.8577
13.9608
13.1161
12.3133
11.5429
10.7966
10.068
9.35187
20.2954
18.9859
17.8174
16.7484
15.7395
14.798
13.9202
13.0934
12.3047
11.5437
10.8029
10.0767
9.36118
20.2381
18.706
17.5687
16.5613
15.5612
14.645
13.8053
13.0157
12.2566
11.5167
10.7897
10.0719
9.36113
20.0004
17.971
17.1291
16.3117
15.2464
14.3712
13.6069
12.8845
12.1746
11.4678
10.7619
10.0573
9.35437
18.9307
15.9428
16.5613
16.103
14.6549
13.9143
13.3148
12.7065
12.0682
11.4051
10.7258
10.0372
9.34385
0.0
0.0
0.0
0.0
13.1785
13.1944
12.949
12.5067
11.9551
11.3403
10.6888
10.0164
9.33258
0.0
0.0
0.0
0.0
12.1919
12.6761
12.6553
12.342
11.8621
11.2874
10.6587
9.9995
9.32332
0.0
0.0
0.0
0.0
11.7321
12.3996
12.4948
12.2505
11.8101
11.2578
10.6419
9.99008
9.31815
20.3078
19.076
17.8866
16.7655
15.7205
14.7505
13.8495
13.0077
12.2134
11.4551
10.7225
10.0074
9.30377
20.3111
19.1147
17.956
16.8566
15.8233
14.8562
13.951
13.1001
12.2937
11.5222
10.7767
10.05
9.33644
20.3119
19.1017
17.9481
16.8622
15.84
14.8811
13.9818
13.1339
12.3279
11.5544
10.8054
10.0745
9.35662
20.3025
19.0112
17.8498
16.7818
15.7721
14.8278
13.9456
13.1139
12.3205
11.5556
10.8116
10.083
9.3656
20.2583
18.7588
17.6261
16.6141
15.6116
14.6891
13.8407
13.0424
12.276
11.5305
10.7992
10.0784
9.36547
20.0601
18.0813
17.2305
16.3955
15.3312
14.4425
13.6601
12.9218
12.1998
11.4845
10.7728
10.0643
9.35881
19.1055
16.1365
16.7207
16.2289
14.8098
14.0342
13.3959
12.7587
12.101
11.4256
10.7385
10.045
9.3485
0.0
0.0
0.0
0.0
13.4978
13.3906
13.0662
12.5762
11.9963
11.3647
10.7033
10.0249
9.33747
0.0
0.0
0.0
0.0
12.6082
12.9259
12.801
12.4258
11.9102
11.3151
10.6747
10.0086
9.32841
0.0
0.0
0.0
0.0
12.1942
12.6771
12.6557
12.3421
11.8621
11.2874
10.6587
9.99952
9.32335
20.3121
19.1001
17.9258
16.8136
15.7721
14.8014
13.8965
13.0488
12.2478
11.4827
10.7439
10.0236
9.31565
20.3137
19.1341
17.9879
16.8958
15.8654
14.8977
13.9894
13.1337
12.3219
11.5449
10.7944
10.0634
9.34634
20.3154
19.1261
17.9849
16.9045
15.8837
14.9231
14.0196
13.1662
12.3543
11.5752
10.8214
10.0864
9.36526
20.3123
19.0566
17.9073
16.8403
15.8294
14.8805
13.9908
13.1506
12.3491
11.5772
10.8275
10.0944
9.37357
20.2912
18.8618
17.7305
16.7055
15.6992
14.7667
13.9034
13.09
12.3108
11.5551
10.8163
10.09
9.37325
20.184
18.3347
17.428
16.5416
15.4793
14.5682
13.7543
12.9879
12.2447
11.5143
10.7923
10.0769
9.36674
19.6317
16.7432
17.0925
16.5133
15.0897
14.2498
13.5407
12.8515
12.1595
11.4621
10.7611
10.0588
9.35678
0.0
0.0
0.0
0.0
14.1183
13.7537
13.2784
12.7006
12.0699
11.4084
10.7292
10.0401
9.34617
0.0
0.0
0.0
0.0
13.4988
13.3908
13.0661
12.5761
11.9962
11.3647
10.7032
10.0249
9.33746
0.0
0.0
0.0
0.0
13.1803
13.1951
12.9492
12.5067
11.955
11.3402
10.6887
10.0164
9.3326
20.3149
19.1287
17.9741
16.8739
15.8374
14.8662
13.9567
13.1018
12.2923
11.5186
10.7719
10.0447
9.33123
20.3146
19.1569
18.0271
16.9448
15.9185
14.9504
14.0384
13.1769
12.3582
11.5742
10.8174
10.0808
9.35922
20.3165
19.1543
18.0292
16.9561
15.9378
14.9756
14.0672
13.2071
12.3879
11.6018
10.8418
10.1016
9.37633
20.3175
19.1097
17.9749
16.909
15.8983
14.9449
14.0467
13.1963
12.385
11.6043
10.8474
10.1087
9.38362
20.3132
18.9909
17.8499
16.8046
15.8004
14.8591
13.9793
13.1484
12.3537
11.5857
10.8376
10.1046
9.38291
20.2838
18.7127
17.6368
16.6593
15.6436
14.716
13.867
13.068
12.2996
11.5511
10.8165
10.0924
9.37647
20.1438
18.0701
17.3468
16.5399
15.4194
14.5108
13.7146
12.9635
12.2307
11.507
10.789
10.0758
9.36687
19.6594
16.7677
17.1041
16.5084
15.0881
14.249
13.5402
12.8511
12.1592
11.4619
10.761
10.0587
9.35673
19.1378
16.1631
16.7346
16.2273
14.809
14.0335
13.3953
12.7582
12.1006
11.4253
10.7383
10.0448
9.34844
18.9632
15.9686
16.5763
16.1049
14.6552
13.914
13.3144
12.706
12.0678
11.4048
10.7257
10.0371
9.34382
20.3143
19.1558
18.023
16.9364
15.9061
14.935
14.021
13.1587
12.3403
11.5576
10.8024
10.0679
9.34833
20.3127
19.1782
18.0663
16.9951
15.9738
15.0059
14.0904
13.2228
12.397
11.6058
10.8421
10.0996
9.37311
20.314
19.1794
18.072
17.0078
15.9928
15.0293
14.1164
13.2496
12.423
11.6297
10.8632
10.1176
9.38795
20.3159
19.1538
18.0374
16.9757
15.9658
15.0086
14.1026
13.2426
12.4215
11.6321
10.8679
10.1233
9.39383
20.3168
19.0885
17.9563
16.9001
15.8952
14.9465
14.0527
13.2058
12.3965
11.6164
10.859
10.119
9.39241
20.312
18.9564
17.8216
16.7873
15.785
14.8465
13.9713
13.1447
12.3533
11.5874
10.8403
10.1076
9.38581
20.2832
18.7123
17.6358
16.6577
15.6422
14.7149
13.8662
13.0674
12.2992
11.5508
10.8163
10.0923
9.3764
20.1922
18.3412
17.4302
16.5392
15.477
14.5664
13.753
12.9869
12.244
11.5138
10.792
10.0767
9.36662
20.0723
18.0903
17.2344
16.3942
15.3291
14.4405
13.6586
12.9206
12.199
11.4839
10.7725
10.0641
9.35868
20.0144
17.9811
17.1341
16.3116
15.2449
14.3694
13.6054
12.8834
12.1738
11.4672
10.7616
10.0571
9.35426
20.3097
19.1773
18.0655
16.9926
15.9689
14.9986
14.081
13.2121
12.3857
11.5945
10.8315
10.09
9.36474
20.3076
19.1946
18.0997
17.0394
16.0235
15.0562
14.1378
13.265
12.4328
11.6349
10.8649
10.117
9.38595
20.3081
19.1973
18.1065
17.0514
16.0401
15.0761
14.1594
13.2871
12.454
11.6544
10.8821
10.1317
9.39808
20.3093
19.183
18.0852
17.0301
16.0215
15.0615
14.1494
13.2815
12.4523
11.6554
10.8849
10.1354
9.40208
20.3103
19.1473
18.0342
16.9772
15.9708
15.016
14.1116
13.2524
12.4313
11.6413
10.876
10.1303
9.3995
20.3097
19.0831
17.9523
16.8971
15.893
14.945
14.0516
13.2051
12.396
11.6161
10.8588
10.1189
9.39233
20.3031
18.9832
17.8439
16.7998
15.7967
14.8564
13.9774
13.1471
12.3528
11.5851
10.8373
10.1043
9.38276
20.2824
18.855
17.7245
16.6999
15.6947
14.7632
13.9009
13.0883
12.3096
11.5543
10.8158
10.0897
9.37305
20.2512
18.753
17.6206
16.6085
15.6068
14.6854
13.8379
13.0405
12.2747
11.5295
10.7986
10.078
9.36525
20.2322
18.7011
17.5639
16.5562
15.5566
14.6413
13.8025
13.0137
12.2553
11.5158
10.7891
10.0716
9.36094
20.3021
19.1915
18.0977
17.0369
16.0194
15.0504
14.1302
13.2562
12.4233
11.6253
10.8558
10.1086
9.37856
20.3003
19.2045
18.1236
17.0727
16.0615
15.0951
14.1746
13.2979
12.4607
11.6576
10.8827
10.1305
9.39585
20.3
19.2067
18.129
17.0816
16.0735
15.1094
14.1901
13.3137
12.4759
11.6716
10.8952
10.1412
9.40476
20.2998
19.1975
18.1143
17.0654
16.0582
15.0963
14.18
13.3067
12.4718
11.6698
10.895
10.1421
9.40632
20.2993
19.1757
18.0801
17.0265
16.019
15.0598
14.1483
13.2808
12.4518
11.6551
10.8848
10.1353
9.40201
20.298
19.1407
18.0279
16.969
15.9611
15.0054
14.1004
13.2412
12.4206
11.6315
10.8675
10.1231
9.39369
20.2947
19.0927
17.9625
16.9
15.8919
14.9404
14.0436
13.1943
12.3836
11.6035
10.8469
10.1083
9.38341
20.2875
19.038
17.8934
16.8299
15.8219
14.8752
13.9871
13.1481
12.3475
11.5761
10.8268
10.0939
9.37331
20.2773
18.9921
17.8354
16.771
15.7641
14.822
13.9415
13.1111
12.3187
11.5544
10.8109
10.0825
9.36532
20.2705
18.9671
17.8032
16.7377
15.7315
14.7923
13.9161
13.0906
12.3028
11.5425
10.8021
10.0763
9.36093
20.2935
19.1989
18.1184
17.0668
16.0543
15.0865
14.1649
13.2874
12.4501
11.6473
10.8732
10.1219
9.38843
20.2923
19.2079
18.1365
17.0919
16.0839
15.1182
14.1965
13.3173
12.4771
11.6707
10.8928
10.138
9.40124
20.2911
19.208
18.138
17.095
16.0886
15.1243
14.2035
13.3248
12.4846
11.678
10.8995
10.1439
9.40629
20.2894
19.1993
18.124
17.0782
16.0713
15.108
14.1892
13.3131
12.4756
11.6714
10.8951
10.1411
9.40473
20.2869
19.1822
18.0961
17.0444
16.0354
15.073
14.1575
13.2858
12.4532
11.6539
10.8819
10.1315
9.39798
20.2838
19.1577
18.0567
16.9972
15.9857
15.0246
14.1133
13.2476
12.4217
11.6289
10.8627
10.1173
9.38778
20.2799
19.1276
18.0102
16.9429
15.9288
14.9694
14.0631
13.2044
12.3861
11.6007
10.8411
10.1012
9.37608
20.2748
19.0963
17.9636
16.8895
15.8733
14.916
14.0148
13.163
12.3522
11.5739
10.8205
10.0859
9.36496
20.2695
19.0704
17.9256
16.8463
15.8289
14.8735
13.9766
13.1305
12.3256
11.5529
10.8045
10.074
9.3563
20.2663
19.0561
17.9046
16.8223
15.8042
14.85
13.9556
13.1126
12.3111
11.5415
10.7958
10.0674
9.35157
20.2866
19.2014
18.1286
17.0823
16.0727
15.1057
14.1833
13.3041
12.4643
11.6589
10.8823
10.1289
9.39355
20.2858
19.2059
18.138
17.0954
16.0884
15.1227
14.2004
13.3204
12.4792
11.672
10.8934
10.138
9.40086
20.2836
19.2023
18.1329
17.0896
16.0826
15.1174
14.1961
13.3171
12.4769
11.6707
10.8928
10.138
9.40124
20.2801
19.1908
18.1147
17.0669
16.0579
15.0929
14.1733
13.2971
12.4602
11.6573
10.8826
10.1304
9.39583
20.2756
19.1724
18.0848
17.0296
16.0172
15.0522
14.1353
13.2635
12.4319
11.6343
10.8646
10.1168
9.38587
20.2702
19.1484
18.046
16.9815
15.9649
15.0002
14.0867
13.2205
12.3956
11.6049
10.8416
10.0993
9.37294
20.2642
19.1212
18.0025
16.9281
15.9074
14.9432
14.0337
13.1739
12.3563
11.5731
10.8167
10.0804
9.35898
20.2582
19.0945
17.9604
16.8771
15.8528
14.8893
13.9839
13.1302
12.3196
11.5435
10.7935
10.0629
9.34604
20.253
19.073
17.927
16.8368
15.8099
14.8472
13.9451
13.0963
12.2913
11.5206
10.7758
10.0494
9.33611
20.2501
19.0613
17.9086
16.8146
15.7863
14.8241
13.9239
13.0777
12.2758
11.5082
10.7661
10.0421
9.33072
20.284
19.2007
18.1293
17.0838
16.0745
15.1075
14.1848
13.3052
12.465
11.6593
10.8824
10.1288
9.39332
20.2833
19.1997
18.1278
17.082
16.0727
15.1058
14.1835
13.3042
12.4644
11.659
10.8824
10.1289
9.39359
20.2803
19.1908
18.1137
17.0641
16.0529
15.0858
14.1646
13.2874
12.4501
11.6474
10.8732
10.122
9.38849
20.2753
19.1742
18.0869
17.0303
16.0155
15.0482
14.129
13.2556
12.4231
11.6253
10.8558
10.1087
9.3786
20.2688
19.1501
18.0479
16.9815
15.9621
14.9945
14.0786
13.2108
12.3849
11.5941
10.8313
10.09
9.36472
20.2611
19.1198
17.9993
16.9211
15.8964
14.929
14.0174
13.1565
12.339
11.5568
10.802
10.0677
9.34823
20.2524
19.086
17.9457
16.8553
15.8255
14.8586
13.952
13.0988
12.2905
11.5176
10.7713
10.0444
9.33105
20.2436