# vtk DataFile Version 2.0
I need something to put here
ASCII

DATASET STRUCTURED_GRID
DIMENSIONS 14 11 21
POINTS 3234 float
2.700000 1.000000 0.000000
2.800000 1.000000 0.000000
2.900000 1.000000 0.000000
3.000000 1.000000 0.000000
3.100000 1.000000 0.000000
3.200000 1.000000 0.000000
3.300000 1.000000 0.000000
3.400000 1.000000 0.000000
3.500000 1.000000 0.000000
3.600000 1.000000 0.000000
3.700000 1.000000 0.000000
3.800000 1.000000 0.000000
3.900000 1.000000 0.000000
4.000000 1.000000 0.000000
2.700000 1.100000 0.000000
2.800000 1.100000 0.000000
2.900000 1.100000 0.000000
3.000000 1.100000 0.000000
3.100000 1.100000 0.000000
3.200000 1.100000 0.000000
3.300000 1.100000 0.000000
3.400000 1.100000 0.000000
3.500000 1.100000 0.000000
3.600000 1.100000 0.000000
3.700000 1.100000 0.000000
3.800000 1.100000 0.000000
3.900000 1.100000 0.000000
4.000000 1.100000 0.000000
2.700000 1.200000 0.000000
2.800000 1.200000 0.000000
2.900000 1.200000 0.000000
3.000000 1.200000 0.000000
3.100000 1.200000 0.000000
3.200000 1.200000 0.000000
3.300000 1.200000 0.000000
3.400000 1.200000 0.000000
3.500000 1.200000 0.000000
3.600000 1.200000 0.000000
3.700000 1.200000 0.000000
3.800000 1.200000 0.000000
3.900000 1.200000 0.000000
4.000000 1.200000 0.000000
2.700000 1.300000 0.000000
2.800000 1.300000 0.000000
2.900000 1.300000 0.000000
3.000000 1.300000 0.000000
3.100000 1.300000 0.000000
3.200000 1.300000 0.000000
3.300000 1.300000 0.000000
3.400000 1.300000 0.000000
3.500000 1.300000 0.000000
3.600000 1.300000 0.000000
3.700000 1.300000 0.000000
3.800000 1.300000 0.000000
3.900000 1.300000 0.000000
4.000000 1.300000 0.000000
2.700000 1.400000 0.000000
2.800000 1.400000 0.000000
2.900000 1.400000 0.000000
3.000000 1.400000 0.000000
3.100000 1.400000 0.000000
3.200000 1.400000 0.000000
3.300000 1.400000 0.000000
3.400000 1.400000 0.000000
3.500000 1.400000 0.000000
3.600000 1.400000 0.000000
3.700000 1.400000 0.000000
3.800000 1.400000 0.000000
3.900000 1.400000 0.000000
4.000000 1.400000 0.000000
2.700000 1.500000 0.000000
2.800000 1.500000 0.000000
2.900000 1.500000 0.000000
3.000000 1.500000 0.000000
3.100000 1.500000 0.000000
3.200000 1.500000 0.000000
3.300000 1.500000 0.000000
3.400000 1.500000 0.000000
3.500000 1.500000 0.000000
3.600000 1.500000 0.000000
3.700000 1.500000 0.000000
3.800000 1.500000 0.000000
3.900000 1.500000 0.000000
4.000000 1.500000 0.000000
2.700000 1.600000 0.000000
2.800000 1.600000 0.000000
2.900000 1.600000 0.000000
3.000000 1.600000 0.000000
3.100000 1.600000 0.000000
3.200000 1.600000 0.000000
3.300000 1.600000 0.000000
3.400000 1.600000 0.000000
3.500000 1.600000 0.000000
3.600000 1.600000 0.000000
3.700000 1.600000 0.000000
3.800000 1.600000 0.000000
3.900000 1.600000 0.000000
4.000000 1.600000 0.000000
2.700000 1.700000 0.000000
2.800000 1.700000 0.000000
2.900000 1.700000 0.000000
3.000000 1.700000 0.000000
3.100000 1.700000 0.000000
3.200000 1.700000 0.000000
3.300000 1.700000 0.000000
3.400000 1.700000 0.000000
3.500000 1.700000 0.000000
3.600000 1.700000 0.000000
3.700000 1.700000 0.000000
3.800000 1.700000 0.000000
3.900000 1.700000 0.000000
4.000000 1.700000 0.000000
2.700000 1.800000 0.000000
2.800000 1.800000 0.000000
2.900000 1.800000 0.000000
3.000000 1.800000 0.000000
3.100000 1.800000 0.000000
3.200000 1.800000 0.000000
3.300000 1.800000 0.000000
3.400000 1.800000 0.000000
3.500000 1.800000 0.000000
3.600000 1.800000 0.000000
3.700000 1.800000 0.000000
3.800000 1.800000 0.000000
3.900000 1.800000 0.000000
4.000000 1.800000 0.000000
2.700000 1.900000 0.000000
2.800000 1.900000 0.000000
2.900000 1.900000 0.000000
3.000000 1.900000 0.000000
3.100000 1.900000 0.000000
3.200000 1.900000 0.000000
3.300000 1.900000 0.000000
3.400000 1.900000 0.000000
3.500000 1.900000 0.000000
3.600000 1.900000 0.000000
3.700000 1.900000 0.000000
3.800000 1.900000 0.000000
3.900000 1.900000 0.000000
4.000000 1.900000 0.000000
2.700000 2.000000 0.000000
2.800000 2.000000 0.000000
2.900000 2.000000 0.000000
3.000000 2.000000 0.000000
3.100000 2.000000 0.000000
3.200000 2.000000 0.000000
3.300000 2.000000 0.000000
3.400000 2.000000 0.000000
3.500000 2.000000 0.000000
3.600000 2.000000 0.000000
3.700000 2.000000 0.000000
3.800000 2.000000 0.000000
3.900000 2.000000 0.000000
4.000000 2.000000 0.000000
2.700000 1.000000 0.100000
2.800000 1.000000 0.100000
2.900000 1.000000 0.100000
3.000000 1.000000 0.100000
3.100000 1.000000 0.100000
3.200000 1.000000 0.100000
3.300000 1.000000 0.100000
3.400000 1.000000 0.100000
3.500000 1.000000 0.100000
3.600000 1.000000 0.100000
3.700000 1.000000 0.100000
3.800000 1.000000 0.100000
3.900000 1.000000 0.100000
4.000000 1.000000 0.100000
2.700000 1.100000 0.100000
2.800000 1.100000 0.100000
2.900000 1.100000 0.100000
3.000000 1.100000 0.100000
3.100000 1.100000 0.100000
3.200000 1.100000 0.100000
3.300000 1.100000 0.100000
3.400000 1.100000 0.100000
3.500000 1.100000 0.100000
3.600000 1.100000 0.100000
3.700000 1.100000 0.100000
3.800000 1.100000 0.100000
3.900000 1.100000 0.100000
4.000000 1.100000 0.100000
2.700000 1.200000 0.100000
2.800000 1.200000 0.100000
2.900000 1.200000 0.100000
3.000000 1.200000 0.100000
3.100000 1.200000 0.100000
3.200000 1.200000 0.100000
3.300000 1.200000 0.100000
3.400000 1.200000 0.100000
3.500000 1.200000 0.100000
3.600000 1.200000 0.100000
3.700000 1.200000 0.100000
3.800000 1.200000 0.100000
3.900000 1.200000 0.100000
4.000000 1.200000 0.100000
2.700000 1.300000 0.100000
2.800000 1.300000 0.100000
2.900000 1.300000 0.100000
3.000000 1.300000 0.100000
3.100000 1.300000 0.100000
3.200000 1.300000 0.100000
3.300000 1.300000 0.100000
3.400000 1.300000 0.100000
3.500000 1.300000 0.100000
3.600000 1.300000 0.100000
3.700000 1.300000 0.100000
3.800000 1.300000 0.100000
3.900000 1.300000 0.100000
4.000000 1.300000 0.100000
2.700000 1.400000 0.100000
2.800000 1.400000 0.100000
2.900000 1.400000 0.100000
3.000000 1.400000 0.100000
3.100000 1.400000 0.100000
3.200000 1.400000 0.100000
3.300000 1.400000 0.100000
3.400000 1.400000 0.100000
3.500000 1.400000 0.100000
3.600000 1.400000 0.100000
3.700000 1.400000 0.100000
3.800000 1.400000 0.100000
3.900000 1.400000 0.100000
4.000000 1.400000 0.100000
2.700000 1.500000 0.100000
2.800000 1.500000 0.100000
2.900000 1.500000 0.100000
3.000000 1.500000 0.100000
3.100000 1.500000 0.100000
3.200000 1.500000 0.100000
3.300000 1.500000 0.100000
3.400000 1.500000 0.100000
3.500000 1.500000 0.100000
3.600000 1.500000 0.100000
3.700000 1.500000 0.100000
3.800000 1.500000 0.100000
3.900000 1.500000 0.100000
4.000000 1.500000 0.100000
2.700000 1.600000 0.100000
2.800000 1.600000 0.100000
2.900000 1.600000 0.100000
3.000000 1.600000 0.100000
3.100000 1.600000 0.100000
3.200000 1.600000 0.100000
3.300000 1.600000 0.100000
3.400000 1.600000 0.100000
3.500000 1.600000 0.100000
3.600000 1.600000 0.100000
3.700000 1.600000 0.100000
3.800000 1.600000 0.100000
3.900000 1.600000 0.100000
4.000000 1.600000 0.100000
2.700000 1.700000 0.100000
2.800000 1.700000 0.100000
2.900000 1.700000 0.100000
3.000000 1.700000 0.100000
3.100000 1.700000 0.100000
3.200000 1.700000 0.100000
3.300000 1.700000 0.100000
3.400000 1.700000 0.100000
3.500000 1.700000 0.100000
3.600000 1.700000 0.100000
3.700000 1.700000 0.100000
3.800000 1.700000 0.100000
3.900000 1.700000 0.100000
4.000000 1.700000 0.100000
2.700000 1.800000 0.100000
2.800000 1.800000 0.100000
2.900000 1.800000 0.100000
3.000000 1.800000 0.100000
3.100000 1.800000 0.100000
3.200000 1.800000 0.100000
3.300000 1.800000 0.100000
3.400000 1.800000 0.100000
3.500000 1.800000 0.100000
3.600000 1.800000 0.100000
3.700000 1.800000 0.100000
3.800000 1.800000 0.100000
3.900000 1.800000 0.100000
4.000000 1.800000 0.100000
2.700000 1.900000 0.100000
2.800000 1.900000 0.100000
2.900000 1.900000 0.100000
3.000000 1.900000 0.100000
3.100000 1.900000 0.100000
3.200000 1.900000 0.100000
3.300000 1.900000 0.100000
3.400000 1.900000 0.100000
3.500000 1.900000 0.100000
3.600000 1.900000 0.100000
3.700000 1.900000 0.100000
3.800000 1.900000 0.100000
3.900000 1.900000 0.100000
4.000000 1.900000 0.100000
2.700000 2.000000 0.100000
2.800000 2.000000 0.100000
2.900000 2.000000 0.100000
3.000000 2.000000 0.100000
3.100000 2.000000 0.100000
3.200000 2.000000 0.100000
3.300000 2.000000 0.100000
3.400000 2.000000 0.100000
3.500000 2.000000 0.100000
3.600000 2.000000 0.100000
3.700000 2.000000 0.100000
3.800000 2.000000 0.100000
3.900000 2.000000 0.100000
4.000000 2.000000 0.100000
2.700000 1.000000 0.200000
2.800000 1.000000 0.200000
2.900000 1.000000 0.200000
3.000000 1.000000 0.200000
3.100000 1.000000 0.200000
3.200000 1.000000 0.200000
3.300000 1.000000 0.200000
3.400000 1.000000 0.200000
3.500000 1.000000 0.200000
3.600000 1.000000 0.200000
3.700000 1.000000 0.200000
3.800000 1.000000 0.200000
3.900000 1.000000 0.200000
4.000000 1.000000 0.200000
2.700000 1.100000 0.200000
2.800000 1.100000 0.200000
2.900000 1.100000 0.200000
3.000000 1.100000 0.200000
3.100000 1.100000 0.200000
3.200000 1.100000 0.200000
3.300000 1.100000 0.200000
3.400000 1.100000 0.200000
3.500000 1.100000 0.200000
3.600000 1.100000 0.200000
3.700000 1.100000 0.200000
3.800000 1.100000 0.200000
3.900000 1.100000 0.200000
4.000000 1.100000 0.200000
2.700000 1.200000 0.200000
2.800000 1.200000 0.200000
2.900000 1.200000 0.200000
3.000000 1.200000 0.200000
3.100000 1.200000 0.200000
3.200000 1.200000 0.200000
3.300000 1.200000 0.200000
3.400000 1.200000 0.200000
3.500000 1.200000 0.200000
3.600000 1.200000 0.200000
3.700000 1.200000 0.200000
3.800000 1.200000 0.200000
3.900000 1.200000 0.200000
4.000000 1.200000 0.200000
2.700000 1.300000 0.200000
2.800000 1.300000 0.200000
2.900000 1.300000 0.200000
3.000000 1.300000 0.200000
3.100000 1.300000 0.200000
3.200000 1.300000 0.200000
3.300000 1.300000 0.200000
3.400000 1.300000 0.200000
3.500000 1.300000 0.200000
3.600000 1.300000 0.200000
3.700000 1.300000 0.200000
3.800000 1.300000 0.200000
3.900000 1.300000 0.200000
4.000000 1.300000 0.200000
2.700000 1.400000 0.200000
[...]
CELL_DATA 2600
SCALARS pressure float 1
LOOKUP_TABLE default
8.66227
7.96359
7.2692
6.57687
5.88532
5.19388
4.50219
3.81013
3.11767
2.42486
1.73178
1.03861
0.345705
8.67125
7.96991
7.27354
6.57979
5.88725
5.19511
4.50297
3.8106
3.11794
2.425
1.73185
1.03863
0.345692
8.68797
7.98169
7.28167
6.58528
5.89087
5.19745
4.50443
3.81149
3.11846
2.42529
1.73198
1.03867
0.345673
8.70998
7.99725
7.29242
6.59254
5.89567
5.20055
4.50638
3.81268
3.11916
2.42567
1.73217
1.03874
0.34566
8.73423
8.01442
7.3043
6.60059
5.901
5.20399
4.50854
3.81399
3.11993
2.4261
1.7324
1.03884
0.345667
8.75755
8.03096
7.31577
6.60836
5.90614
5.20731
4.51063
3.81526
3.12068
2.42652
1.73263
1.03896
0.345707
8.7772
8.04492
7.32545
6.61492
5.91047
5.2101
4.51237
3.81632
3.12129
2.42688
1.73284
1.0391
0.345786
8.7912
8.05485
7.33232
6.61954
5.91351
5.21203
4.51357
3.81703
3.1217
2.42711
1.73299
1.03923
0.345902
8.79838
8.05987
7.33572
6.62178
5.91494
5.21291
4.51407
3.8173
3.12184
2.42718
1.73305
1.03932
0.346031
8.79788
8.05932
7.33518
6.62128
5.9145
5.21254
4.51378
3.81707
3.12165
2.42705
1.73296
1.03929
0.346093
8.71149
8.00002
7.29575
6.59595
5.89887
5.20339
4.50881
3.8147
3.12082
2.42705
1.73335
1.03974
0.346308
8.71899
8.00533
7.29941
6.59842
5.9005
5.20443
4.50945
3.81508
3.12104
2.42717
1.73339
1.03974
0.346276
8.73289
8.01516
7.30621
6.60301
5.90352
5.20637
4.51066
3.81581
3.12145
2.42738
1.73348
1.03975
0.34622
8.75103
8.02801
7.31509
6.60901
5.90748
5.20891
4.51224
3.81675
3.12198
2.42765
1.7336
1.03976
0.346154
8.77066
8.0419
7.32469
6.61548
5.91172
5.21162
4.51391
3.81774
3.12254
2.42794
1.73372
1.03978
0.346097
8.7888
8.05471
7.33349
6.62137
5.91556
5.21404
4.51538
3.81859
3.12299
2.42816
1.73381
1.0398
0.346064
8.80272
8.06444
7.3401
6.62572
5.91833
5.21573
4.51636
3.81911
3.12325
2.42826
1.73383
1.0398
0.346065
8.81012
8.0694
7.34329
6.62767
5.91944
5.2163
4.51659
3.81915
3.12319
2.42816
1.73375
1.03976
0.346095
8.80922
8.06828
7.34212
6.62656
5.91845
5.21545
4.51589
3.81859
3.12274
2.42782
1.73351
1.03963
0.346123
8.79839
8.05988
7.33573
6.62179
5.91494
5.21291
4.51408
3.81731
3.12184
2.42719
1.73305
1.03932
0.346034
8.74335
8.02503
7.31495
6.61042
5.9096
5.21124
4.51449
3.81878
3.12374
2.42913
1.73481
1.0407
0.346738
8.74984
8.02956
7.31803
6.61246
5.91092
5.21206
4.51498
3.81906
3.12388
2.42918
1.73481
1.04067
0.34668
8.76178
8.03789
7.3237
6.61622
5.91335
5.21358
4.51589
3.81957
3.12414
2.42929
1.73483
1.04062
0.346578
8.77715
8.0486
7.33097
6.62103
5.91644
5.2155
4.51703
3.8202
3.12446
2.42942
1.73484
1.04056
0.346451
8.79329
8.05979
7.33853
6.62599
5.91959
5.21742
4.51814
3.82079
3.12473
2.42951
1.73482
1.04048
0.346324
8.80729
8.06939
7.34491
6.63009
5.9221
5.21889
4.51893
3.82116
3.12485
2.42949
1.73475
1.04038
0.346221
8.81635
8.07535
7.34865
6.6323
5.92331
5.21945
4.5191
3.82112
3.1247
2.42931
1.73458
1.04026
0.346157
8.81797
8.07585
7.34847
6.63175
5.92259
5.2187
4.51839
3.8205
3.12418
2.42889
1.73426
1.04007
0.346129
8.81012
8.0694
7.34329
6.62767
5.91944
5.2163
4.5166
3.81916
3.12319
2.42817
1.73376
1.03977
0.346097
8.7912
8.05486
7.33232
6.61955
5.91352
5.21205
4.51358
3.81704
3.12171
2.42713
1.733
1.03924
0.345908
8.75957
8.03952
7.32718
6.62036
5.91745
5.2173
4.51908
3.82221
3.12627
2.43098
1.73612
1.04156
0.347181
8.76543
8.04347
7.32978
6.62201
5.91846
5.21789
4.5194
3.82237
3.12633
2.43097
1.73608
1.0415
0.347097
8.77614
8.05068
7.3345
6.62502
5.9203
5.21897
4.51999
3.82264
3.12642
2.43096
1.73601
1.04139
0.346945
8.78968
8.05976
7.34042
6.62875
5.92256
5.22025
4.52066
3.82293
3.12649
2.43091
1.7359
1.04124
0.346753
8.80339
8.06884
7.34624
6.63233
5.92465
5.22138
4.52118
3.8231
3.12646
2.43078
1.73573
1.04105
0.346553
8.8143
8.07583
7.35051
6.63478
5.92592
5.22191
4.52128
3.82297
3.12622
2.43051
1.73547
1.04084
0.346377
8.81949
8.07863
7.35176
6.63507
5.92568
5.2214
4.52068
3.82237
3.12567
2.43004
1.7351
1.04058
0.346246
8.81633
8.07533
7.34864
6.63229
5.92331
5.21945
4.5191
3.82112
3.12471
2.42931
1.73458
1.04026
0.346159
8.80269
8.06441
7.34008
6.62571
5.91832
5.21573
4.51636
3.81912
3.12325
2.42827
1.73384
1.03981
0.346069
8.77717
8.04491
7.32545
6.61492
5.91048
5.21011
4.51239
3.81634
3.12131
2.4269
1.73286
1.03911
0.345795
8.76316
8.0454
7.33363
6.62645
5.92277
5.22172
4.52264
3.825
3.12842
2.43259
1.7373
1.04238
0.347684
8.76867
8.04893
7.33581
6.62774
5.92349
5.22209
4.52279
3.82503
3.12837
2.43252
1.73721
1.04228
0.347573
8.77869
8.05532
7.33975
6.63007
5.92478
5.22273
4.52304
3.82505
3.12828
2.43237
1.73705
1.0421
0.347371
8.79114
8.06318
7.34453
6.63283
5.92624
5.2234
4.52324
3.82499
3.1281
2.43213
1.7368
1.04186
0.347111
8.80329
8.07065
7.34889
6.63518
5.92735
5.22376
4.52318
3.82473
3.12775
2.43178
1.73646
1.04156
0.346835
8.81203
8.07558
7.35137
6.63616
5.92746
5.2234
4.52262
3.82411
3.12716
2.43125
1.73603
1.04122
0.346582
8.81427
8.0758
7.35049
6.63476
5.9259
5.2219
4.52128
3.82297
3.12622
2.43051
1.73547
1.04084
0.346379
8.80724
8.06934
7.34487
6.63006
5.92208
5.21887
4.51892
3.82116
3.12485
2.4295
1.73475
1.04039
0.346225
8.78873
8.05465
7.33345
6.62134
5.91554
5.21403
4.51537
3.81859
3.123
2.42817
1.73382
1.03981
0.346071
8.75748
8.03091
7.31574
6.60834
5.90614
5.20732
4.51064
3.81528
3.1207
2.42655
1.73265
1.03898
0.345719
8.75777
8.0451
7.33582
6.62963
5.92612
5.22483
4.52533
3.82722
3.13019
2.43397
1.73834
1.04315
0.348236
8.76313
8.04832
7.33766
6.63061
5.92657
5.22498
4.5253
3.82711
3.13005
2.43382
1.73821
1.04302
0.348099
8.77283
8.0541
7.34093
6.63231
5.92733
5.22519
4.52522
3.82689
3.12977
2.43354
1.73794
1.04277
0.347847
8.78473
8.06105
7.34474
6.63419
5.92806
5.22527
4.52497
3.82649
3.12933
2.43312
1.73756
1.04243
0.347521
8.79596
8.06728
7.34787
6.63545
5.92826
5.22491
4.52436
3.82581
3.12868
2.43254
1.73707
1.04202
0.347168
8.80324
8.07061
7.34886
6.63515
5.92733
5.22374
4.52317
3.82472
3.12775
2.43177
1.73646
1.04156
0.346836
8.80331
8.06877
7.34618
6.63228
5.92462
5.22135
4.52116
3.82309
3.12645
2.43078
1.73573
1.04105
0.346555
8.79319
8.0597
7.33845
6.62593
5.91954
5.21738
4.51812
3.82078
3.12473
2.42951
1.73482
1.04048
0.346329
8.77053
8.0418
7.3246
6.61542
5.91168
5.21159
4.51389
3.81773
3.12254
2.42794
1.73373
1.03979
0.346105
8.73409
8.01431
7.30423
6.60054
5.90097
5.20398
4.50854
3.814
3.11995
2.42612
1.73242
1.03886
0.345681
8.74733
8.04115
7.33535
6.63089
5.92808
5.22694
4.5273
3.82894
3.13161
2.43511
1.73924
1.04385
0.348793
8.75265
8.04412
7.33689
6.63157
5.92828
5.22688
4.52712
3.82871
3.13139
2.4349
1.73906
1.04368
0.348632
8.76226
8.04943
7.33959
6.63273
5.92857
5.22671
4.52673
3.82826
3.13094
2.4345
1.7387
1.04337
0.348335
8.77394
8.0557
7.34259
6.63384
5.92864
5.22625
4.52606
3.82754
3.13026
2.4339
1.7382
1.04294
0.347946
8.78468
8.061
7.3447
6.63416
5.92803
5.22525
4.52495
3.82647
3.12932
2.43312
1.73756
1.04243
0.347522
8.79105
8.06309
7.34445
6.63276
5.92619
5.22335
4.52321
3.82497
3.12808
2.43212
1.73679
1.04186
0.347113
8.78955
8.05964
7.34032
6.62866
5.92249
5.2202
4.52062
3.82291
3.12647
2.4309
1.73589
1.04124
0.346756
8.77699
8.04845
7.33085
6.62094
5.91636
5.21544
4.51699
3.82018
3.12444
2.42941
1.73484
1.04056
0.346456
8.75084
8.02785
7.31496
6.60891
5.9074
5.20886
4.5122
3.81673
3.12198
2.42766
1.73361
1.03977
0.346163
8.70976
7.99707
7.29228
6.59245
5.89561
5.20051
4.50636
3.81268
3.11917
2.42569
1.73219
1.03876
0.345676
8.73561
8.03588
7.33366
6.63106
5.92914
5.22832
4.5287
3.83021
3.1327
2.43601
1.73996
1.04443
0.349294
8.74094
8.03867
7.33495
6.6315
5.92912
5.22808
4.52838
3.82988
3.1324
2.43574
1.73974
1.04424
0.349113
8.75057
8.04363
7.33718
6.6322
5.92901
5.22759
4.52774
3.82923
3.1318
2.43523
1.73931
1.04387
0.348777
8.7622
8.04937
7.33954
6.63268
5.92853
5.22668
4.52671
3.82824
3.13093
2.43449
1.7387
1.04337
0.348336
8.77272
8.05399
7.34083
6.63223
5.92727
5.22514
4.52518
3.82686
3.12975
2.43353
1.73793
1.04276
0.34785
8.77853
8.05517
7.33962
6.62996
5.92469
5.22266
4.52298
3.82501
3.12826
2.43235
1.73704
1.0421
0.347375
8.77594
8.0505
7.33435
6.62489
5.9202
5.21889
4.51993
3.8226
3.12639
2.43094
1.736
1.04139
0.34695
8.76155
8.03768
7.32352
6.61608
5.91323
5.2135
4.51583
3.81953
3.12412
2.42928
1.73483
1.04062
0.346584
8.73262
8.01493
7.30601
6.60286
5.90341
5.20629
4.51061
3.81578
3.12144
2.42737
1.73349
1.03976
0.346229
8.68765
7.98143
7.28147
6.58513
5.89077
5.19738
4.50439
3.81147
3.11846
2.4253
1.732
1.03869
0.34569
8.72586
8.03125
7.33189
6.63083
5.92966
5.22915
4.52961
3.83106
3.13345
2.43663
1.74048
1.04486
0.349675
8.73121
8.0339
7.333
6.63109
5.92949
5.22879
4.52919
3.83066
3.13309
2.43632
1.74022
1.04464
0.349479
8.74087
8.03861
7.3349
6.63146
5.92909
5.22805
4.52836
3.82986
3.13238
2.43573
1.73973
1.04423
0.349115
8.75252
8.04401
7.33678
6.63148
5.9282
5.22682
4.52707
3.82868
3.13136
2.43488
1.73905
1.04368
0.348635
8.76295
8.04815
7.33751
6.63048
5.92647
5.22489
4.52524
3.82707
3.13002
2.4338
1.73819
1.04301
0.348103
8.76845
8.04873
7.33563
6.62759
5.92336
5.22199
4.52271
3.82497
3.12833
2.43249
1.7372
1.04228
0.347578
8.76517
8.04323
7.32956
6.62183
5.91832
5.21778
4.51932
3.82231
3.12629
2.43095
1.73607
1.0415
0.347103
8.74954
8.02928
7.31779
6.61226
5.91076
5.21195
4.5149
3.819
3.12384
2.42916
1.73481
1.04067
0.346687
8.71863
8.00502
7.29915
6.59821
5.90034
5.20431
4.50937
3.81503
3.12101
2.42715
1.73339
1.03975
0.346286
8.67083
7.96956
7.27327
6.57959
5.8871
5.19501
4.5029
3.81056
3.11793
2.42501
1.73186
1.03865
0.34571
8.72043
8.02862
7.33083
6.63061
5.92987
5.22955
4.53005
3.83149
3.13383
2.43695
1.74074
1.04508
0.34988
8.72579
8.0312
7.33185
6.63078
5.92962
5.22912
4.52958
3.83104
3.13343
2.43662
1.74047
1.04485
0.349676
8.73547
8.03577
7.33356
6.63097
5.92906
5.22826
4.52865
3.83017
3.13268
2.43599
1.73995
1.04443
0.349297
8.74713
8.04098
7.3352
6.63075
5.92797
5.22685
4.52723
3.82888
3.13158
2.43509
1.73923
1.04384
0.348797
8.75753
8.04489
7.33562
6.62946
5.92598
5.22472
4.52524
3.82715
3.13014
2.43394
1.73833
1.04314
0.34824
8.76287
8.04514
7.33339
6.62624
5.9226
5.22159
4.52254
3.82493
3.12836
2.43255
1.73728
1.04237
0.347689
8.75925
8.03922
7.32691
6.62013
5.91726
5.21715
4.51897
3.82213
3.12622
2.43094
1.7361
1.04156
0.347187
8.74298
8.0247
7.31466
6.61018
5.90941
5.21109
4.51438
3.8187
3.12368
2.42909
1.73479
1.04069
0.346745
8.71106
7.99964
7.29543
6.59569
5.89867
5.20324
4.5087
3.81462
3.12078
2.42703
1.73334
1.03974
0.346318
8.66175
7.96316
7.26885
6.5766
5.88512
5.19373
4.5021
3.81007
3.11764
2.42485
1.73179
1.03863
0.345722
8.72044
8.02862
7.33083
6.63061
5.92987
5.22955
4.53005
3.83149
3.13383
2.43695
1.74074
1.04508
0.349879
8.72579
8.0312
7.33184
6.63078
5.92962
5.22912
4.52958
3.83104
3.13343
2.43662
1.74047
1.04485
0.349675
8.73547
8.03577
7.33355
6.63097
5.92906
5.22825
4.52865
3.83017
3.13267
2.43599
1.73995
1.04443
0.349297
8.74713
8.04097
7.33519
6.63074
5.92796
5.22685
4.52723
3.82888
3.13157
2.43508
1.73922
1.04384
0.348796
8.75752
8.04488
7.33562
6.62946
5.92597
5.22471
4.52523
3.82715
3.13014
2.43393
1.73832
1.04314
0.34824
8.76287
8.04514
7.33339
6.62624
5.9226
5.22159
4.52253
3.82492
3.12836
2.43255
1.73728
1.04237
0.347689
8.75925
8.03922
7.32691
6.62013
5.91726
5.21715
4.51897
3.82213
3.12621
2.43094
1.7361
1.04156
0.347187
8.74298
8.0247
7.31465
6.61017
5.9094
5.21109
4.51437
3.81869
3.12368
2.42909
1.73479
1.04069
0.346744
8.71105
7.99964
7.29543
6.59569
5.89867
5.20323
4.50869
3.81462
3.12078
2.42703
1.73334
1.03974
0.346317
8.66175
7.96316
7.26885
6.5766
5.88512
5.19373
4.50209
3.81007
3.11764
2.42485
1.73178
1.03863
0.345722
8.72587
8.03125
7.33188
6.63082
5.92965
5.22914
4.5296
3.83105
3.13344
2.43663
1.74047
1.04485
0.349673
8.73121
8.0339
7.33299
6.63108
5.92948
5.22878
4.52917
3.83065
3.13308
2.43632
1.74022
1.04464
0.349477
8.74087
8.0386
7.33488
6.63144
5.92907
5.22804
4.52835
3.82985
3.13238
2.43573
1.73973
1.04423
0.349113
8.75251
8.04399
7.33677
6.63146
5.92819
5.22681
4.52706
3.82867
3.13135
2.43488
1.73904
1.04367
0.348633
8.76294
8.04814
7.33749
6.63046
5.92645
5.22488
4.52523
3.82706
3.13001
2.43379
1.73819
1.04301
0.348101
8.76844
8.04871
7.33561
6.62757
5.92335
5.22198
4.5227
3.82496
3.12833
2.43248
1.73719
1.04228
0.347577
8.76516
8.04321
7.32954
6.62181
5.9183
5.21777
4.51931
3.8223
3.12628
2.43094
1.73607
1.0415
0.347102
8.74953
8.02927
7.31777
6.61225
5.91075
5.21193
4.51488
3.81899
3.12383
2.42916
1.7348
1.04067
0.346686
8.71862
8.005
7.29914
6.5982
5.90033
5.2043
4.50936
3.81502
3.121
2.42715
1.73339
1.03975
0.346285
8.67082
7.96955
7.27326
6.57957
5.88709
5.195
4.50289
3.81055
3.11792
2.425
1.73186
1.03865
0.345709
8.73562
8.03588
7.33364
6.63104
5.92912
5.2283
4.52868
3.8302
3.13269
2.436
1.73996
1.04443
0.349292
8.74094
8.03866
7.33493
6.63148
5.9291
5.22806
4.52836
3.82986
3.13238
2.43573
1.73973
1.04423
0.349111
8.75055
8.0436
7.33716
6.63218
5.92899
5.22756
4.52772
3.82921
3.13179
2.43522
1.7393
1.04386
0.348775
8.76218
8.04935
7.33951
6.63266
5.92851
5.22666
4.52669
3.82822
3.13091
2.43448
1.73869
1.04336
0.348334
8.77269
8.05396
7.34081
6.63221
5.92725
5.22512
4.52516
3.82685
3.12974
2.43352
1.73793
1.04276
0.347847
8.77851
8.05515
7.3396
6.62994
5.92467
5.22264
4.52297
3.825
3.12824
2.43234
1.73703
1.0421
0.347373
8.77592
8.05047
7.33432
6.62486
5.92018
5.21887
4.51991
3.82258
3.12638
2.43093
1.736
1.04139
0.346948
8.76153
8.03766
7.32349
6.61605
5.91321
5.21348
4.51581
3.81951
3.1241
2.42927
1.73482
1.04062
0.346583
8.73259
8.0149
7.30599
6.60284
5.90339
5.20627
4.51059
3.81576
3.12142
2.42737
1.73348
1.03975
0.346228
8.68763
7.98141
7.28145
6.58511
5.89075
5.19736
4.50437
3.81146
3.11845
2.42529
1.73199
1.03869
0.345689
8.74733
8.04114
7.33533
6.63086
5.92805
5.22691
4.52728
3.82892
3.1316
2.4351
1.73923
1.04384
0.348789
8.75264
8.0441
7.33686
6.63154
5.92825
5.22685
4.52709
3.82869
3.13137
2.43489
1.73905
1.04367
0.348629
8.76223
8.0494
7.33956
6.63269
5.92853
5.22668
4.52671
3.82823
3.13092
2.43448
1.73869
1.04336
0.348332
8.77391
8.05566
7.34256
6.6338
5.9286
5.22622
4.52603
3.82751
3.13024
2.43389
1.73819
1.04293
0.347943
8.78464
8.06096
7.34466
6.63412
5.928
5.22522
4.52492
3.82645
3.12931
2.4331
1.73755
1.04242
0.347519
8.79101
8.06306
7.34442
6.63273
5.92616
5.22333
4.52318
3.82495
3.12807
2.43211
1.73678
1.04185
0.347111
8.78951
8.0596
7.34028
6.62863
5.92246
5.22017
4.5206
3.82289
3.12646
2.43089
1.73588
1.04123
0.346754
8.77696
8.04842
7.33081
6.6209
5.91633
5.21541
4.51696
3.82016
3.12443
2.4294
1.73483
1.04056
0.346454
8.75081
8.02781
7.31493
6.60888
5.90737
5.20883
4.51218
3.81671
3.12196
2.42764
1.7336
1.03977
0.346161
8.70973
7.99703
7.29225
6.59242
5.89558
5.20049
4.50634
3.81266
3.11915
2.42567
1.73219
1.03876
0.345674
8.75776
8.04508
7.33578
6.62959
5.92608
5.22479
4.52529
3.82719
3.13017
2.43395
1.73833
1.04314
0.348231
8.7631
8.04828
7.33762
6.63056
5.92653
5.22494
4.52527
3.82709
3.13003
2.4338
1.73819
1.04301
0.348095
8.77279
8.05405
7.34088
6.63227
5.92729
5.22515
4.52519
3.82686
3.12975
2.43353
1.73793
1.04276
0.347843
8.78468
8.061
7.34469
6.63415
5.92802
5.22523
4.52493
3.82646
3.12931
2.4331
1.73755
1.04242
0.347517
8.7959
8.06723
7.34782
6.63541
5.92822
5.22487
4.52432
3.82578
3.12866
2.43252
1.73706
1.04201
0.347165
8.80319
8.07056
7.34881
6.63511
5.92728
5.2237
4.52314
3.8247
3.12772
2.43176
1.73645
1.04155
0.346833
8.80327
8.06872
7.34614
6.63224
5.92458
5.22132
4.52113
3.82306
3.12643
2.43076
1.73571
1.04105
0.346552
8.79315
8.05966
7.33841
6.62589
5.9195
5.21735
4.51809
3.82076
3.12471
2.42949
1.73481
1.04048
0.346326
8.77049
8.04175
7.32456
6.61537
5.91164
5.21156
4.51386
3.81771
3.12252
2.42793
1.73372
1.03978
0.346102
8.73404
8.01426
7.30418
6.6005
5.90093
5.20394
4.50851
3.81398
3.11993
2.42611
1.73241
1.03885
0.345679
8.76313
8.04536
7.33357
6.62639
5.92272
5.22168
4.5226
3.82497
3.12839
2.43257
1.73728
1.04237
0.347679
8.76862
8.04888
7.33576
6.62769
5.92344
5.22204
4.52275
3.82499
3.12835
2.43249
1.7372
1.04227
0.347569
8.77862
8.05526
7.33969
6.63001
5.92473
5.22268
4.523
3.82502
3.12826
2.43235
1.73703
1.04209
0.347366
8.79107
8.06312
7.34447
6.63277
5.92619
5.22335
4.5232
3.82496
3.12807
2.43211
1.73678
1.04185
0.347107
8.80321
8.07058
7.34883
6.63512
5.9273
5.22371
4.52314
3.8247
3.12772
2.43176
1.73645
1.04155
0.346831
8.81196
8.07551
7.35131
6.6361
5.92741
5.22336
4.52258
3.82408
3.12713
2.43123
1.73602
1.04121
0.346579
8.81421
8.07574
7.35043
6.63471
5.92586
5.22186
4.52124
3.82294
3.1262
2.43049
1.73546
1.04083
0.346375
8.80718
8.06928
7.34481
6.63
5.92204
5.21883
4.51888
3.82113
3.12483
2.42948
1.73474
1.04038
0.346221
8.78867
8.05459
7.33339
6.62129
5.9155
5.21399
4.51534
3.81856
3.12298
2.42815
1.73381
1.0398
0.346068
8.75742
8.03085
7.31568
6.60829
5.90609
5.20728
4.51061
3.81525
3.12067
2.42653
1.73264
1.03897
0.345716
8.75952
8.03945
7.32711
6.62029
5.91739
5.21724
4.51904
3.82217
3.12624
2.43095
1.7361
1.04155
0.347176
8.76535
8.04339
7.3297
6.62194
5.9184
5.21784
4.51936
3.82233
3.12629
2.43095
1.73607
1.04149
0.347092
8.77605
8.0506
7.33443
6.62495
5.92024
5.21891
4.51994
3.8226
3.12639
2.43094
1.73599
1.04138
0.34694
8.78958
8.05967
7.34034
6.62868
5.9225
5.2202
4.52061
3.8229
3.12646
2.43089
1.73588
1.04123
0.346748
8.8033
8.06876
7.34617
6.63227
5.92459
5.22133
4.52114
3.82306
3.12643
2.43076
1.73571
1.04104
0.346548
8.81422
8.07575
7.35044
6.63471
5.92586
5.22186
4.52124
3.82294
3.12619
2.43049
1.73546
1.04083
0.346373
8.81941
8.07855
7.35169
6.63501
5.92562
5.22136
4.52064
3.82233
3.12564
2.43002
1.73509
1.04057
0.346243
8.81625
8.07526
7.34857
6.63223
5.92325
5.2194
4.51906
3.82109
3.12468
2.42929
1.73456
1.04025
0.346156
8.80262
8.06434
7.34001
6.62565
5.91827
5.21568
4.51632
3.81909
3.12323
2.42825
1.73383
1.0398
0.346066
8.7771
8.04483
7.32538
6.61486
5.91043
5.21007
4.51235
3.8163
3.12128
2.42688
1.73284
1.0391
0.345792
8.74327
8.02495
7.31486
6.61034
5.90953
5.21118
4.51444
3.81873
3.1237
2.4291
1.73479
1.04068
0.346732
8.74973
8.02946
7.31794
6.61238
5.91085
5.212
4.51493
3.81901
3.12384
2.42916
1.73479
1.04066
0.346675
8.76166
8.03779
7.3236
6.61614
5.91328
5.21352
4.51584
3.81952
3.12411
2.42927
1.73481
1.04061
0.346573
8.77703
8.04849
7.33088
6.62095
5.91637
5.21544
4.51698
3.82016
3.12442
2.42939
1.73482
1.04055
0.346446
8.79318
8.05969
7.33844
6.62591
5.91952
5.21736
4.51809
3.82075
3.1247
2.42948
1.7348
1.04047
0.346319
8.80719
8.0693
7.34482
6.63001
5.92204
5.21883
4.51888
3.82112
3.12482
2.42947
1.73473
1.04037
0.346217
8.81625
8.07526
7.34857
6.63223
5.92325
5.21939
4.51905
3.82108
3.12467
2.42929
1.73456
1.04025
0.346153
8.81788
8.07577
7.34839
6.63168
5.92253
5.21864
4.51835
3.82046
3.12415
2.42887
1.73425
1.04006
0.346125
8.81003
8.06932
7.34321
6.62761
5.91938
5.21625
4.51655
3.81912
3.12316
2.42815
1.73374
1.03976
0.346094
8.79111
8.05477
7.33225
6.61948
5.91346
5.212
4.51354
3.81701
3.12168
2.4271
1.73299
1.03923
0.345905
8.71137
7.99991
7.29564
6.59586
5.89879
5.20332
4.50874
3.81465
3.12078
2.42702
1.73333
1.03972
0.346302
8.71885
8.0052
7.2993
6.59832
5.90041
5.20436
4.50939
3.81503
3.121
2.42713
1.73337
1.03973
0.34627
8.73274
8.01504
7.3061
6.60292
5.90344
5.2063
4.5106
3.81576
3.12141
2.42735
1.73346
1.03973
0.346214
8.75089
8.02789
7.31499
6.60892
5.9074
5.20884
4.51218
3.8167
3.12195
2.42762
1.73358
1.03975
0.346149
8.77052
8.04178
7.32458
6.61539
5.91165
5.21155
4.51385
3.81769
3.1225
2.42791
1.7337
1.03977
0.346092
8.78868
8.0546
7.3334
6.62129
5.91549
5.21398
4.51532
3.81854
3.12296
2.42813
1.73379
1.03978
0.34606
8.80261
8.06434
7.34001
6.62564
5.91826
5.21567
4.51631
3.81907
3.12321
2.42823
1.73382
1.03979
0.346061
8.81002
8.06931
7.34321
6.6276
5.91938
5.21624
4.51654
3.81912
3.12316
2.42814
1.73373
1.03975
0.346091
8.80912
8.06819
7.34204
6.62649
5.91838
5.21539
4.51584
3.81855
3.12271
2.4278
1.73349
1.03962
0.346119
8.79829
8.05979
7.33565
6.62172
5.91488
5.21286
4.51403
3.81727
3.12181
2.42716
1.73304
1.03931
0.34603
8.66212
7.96345
7.26907
6.57676
5.88523
5.19379
4.50212
3.81007
3.11763
2.42482
1.73175
1.03859
0.345698
8.67109
7.96976
7.27342
6.57968
5.88715
5.19503
4.5029
3.81054
3.1179
2.42497
1.73182
1.03861
0.345685
8.68779
7.98154
7.28154
6.58517
5.89078