# vtk DataFile Version 2.0
I need something to put here
ASCII

DATASET STRUCTURED_GRID
DIMENSIONS 41 21 21
POINTS 18081 float
0.000000 0.000000 0.000000
0.100000 0.000000 0.000000
0.200000 0.000000 0.000000
0.300000 0.000000 0.000000
0.400000 0.000000 0.000000
0.500000 0.000000 0.000000
0.600000 0.000000 0.000000
0.700000 0.000000 0.000000
0.800000 0.000000 0.000000
0.900000 0.000000 0.000000
1.000000 0.000000 0.000000
1.100000 0.000000 0.000000
1.200000 0.000000 0.000000
1.300000 0.000000 0.000000
1.400000 0.000000 0.000000
1.500000 0.000000 0.000000
1.600000 0.000000 0.000000
1.700000 0.000000 0.000000
1.800000 0.000000 0.000000
1.900000 0.000000 0.000000
2.000000 0.000000 0.000000
2.100000 0.000000 0.000000
2.200000 0.000000 0.000000
2.300000 0.000000 0.000000
2.400000 0.000000 0.000000
2.500000 0.000000 0.000000
2.600000 0.000000 0.000000
2.700000 0.000000 0.000000
2.800000 0.000000 0.000000
2.900000 0.000000 0.000000
3.000000 0.000000 0.000000
3.100000 0.000000 0.000000
3.200000 0.000000 0.000000
3.300000 0.000000 0.000000
3.400000 0.000000 0.000000
3.500000 0.000000 0.000000
3.600000 0.000000 0.000000
3.700000 0.000000 0.000000
3.800000 0.000000 0.000000
3.900000 0.000000 0.000000
4.000000 0.000000 0.000000
0.000000 0.100000 0.000000
0.100000 0.100000 0.000000
0.200000 0.100000 0.000000
0.300000 0.100000 0.000000
0.400000 0.100000 0.000000
0.500000 0.100000 0.000000
0.600000 0.100000 0.000000
0.700000 0.100000 0.000000
0.800000 0.100000 0.000000
0.900000 0.100000 0.000000
1.000000 0.100000 0.000000
1.100000 0.100000 0.000000
1.200000 0.100000 0.000000
1.300000 0.100000 0.000000
1.400000 0.100000 0.000000
1.500000 0.100000 0.000000
1.600000 0.100000 0.000000
1.700000 0.100000 0.000000
1.800000 0.100000 0.000000
1.900000 0.100000 0.000000
2.000000 0.100000 0.000000
2.100000 0.100000 0.000000
2.200000 0.100000 0.000000
2.300000 0.100000 0.000000
2.400000 0.100000 0.000000
2.500000 0.100000 0.000000
2.600000 0.100000 0.000000
2.700000 0.100000 0.000000
2.800000 0.100000 0.000000
2.900000 0.100000 0.000000
3.000000 0.100000 0.000000
3.100000 0.100000 0.000000
3.200000 0.100000 0.000000
3.300000 0.100000 0.000000
3.400000 0.100000 0.000000
3.500000 0.100000 0.000000
3.600000 0.100000 0.000000
3.700000 0.100000 0.000000
3.800000 0.100000 0.000000
3.900000 0.100000 0.000000
4.000000 0.100000 0.000000
0.000000 0.200000 0.000000
0.100000 0.200000 0.000000
0.200000 0.200000 0.000000
0.300000 0.200000 0.000000
0.400000 0.200000 0.000000
0.500000 0.200000 0.000000
0.600000 0.200000 0.000000
0.700000 0.200000 0.000000
0.800000 0.200000 0.000000
0.900000 0.200000 0.000000
1.000000 0.200000 0.000000
1.100000 0.200000 0.000000
1.200000 0.200000 0.000000
1.300000 0.200000 0.000000
1.400000 0.200000 0.000000
1.500000 0.200000 0.000000
1.600000 0.200000 0.000000
1.700000 0.200000 0.000000
1.800000 0.200000 0.000000
1.900000 0.200000 0.000000
2.000000 0.200000 0.000000
2.100000 0.200000 0.000000
2.200000 0.200000 0.000000
2.300000 0.200000 0.000000
2.400000 0.200000 0.000000
2.500000 0.200000 0.000000
2.600000 0.200000 0.000000
2.700000 0.200000 0.000000
2.800000 0.200000 0.000000
2.900000 0.200000 0.000000
3.000000 0.200000 0.000000
3.100000 0.200000 0.000000
3.200000 0.200000 0.000000
3.300000 0.200000 0.000000
3.400000 0.200000 0.000000
3.500000 0.200000 0.000000
3.600000 0.200000 0.000000
3.700000 0.200000 0.000000
3.800000 0.200000 0.000000
3.900000 0.200000 0.000000
4.000000 0.200000 0.000000
0.000000 0.300000 0.000000
0.100000 0.300000 0.000000
0.200000 0.300000 0.000000
0.300000 0.300000 0.000000
0.400000 0.300000 0.000000
0.500000 0.300000 0.000000
0.600000 0.300000 0.000000
0.700000 0.300000 0.000000
0.800000 0.300000 0.000000
0.900000 0.300000 0.000000
1.000000 0.300000 0.000000
1.100000 0.300000 0.000000
1.200000 0.300000 0.000000
1.300000 0.300000 0.000000
1.400000 0.300000 0.000000
1.500000 0.300000 0.000000
1.600000 0.300000 0.000000
1.700000 0.300000 0.000000
1.800000 0.300000 0.000000
1.900000 0.300000 0.000000
2.000000 0.300000 0.000000
2.100000 0.300000 0.000000
2.200000 0.300000 0.000000
2.300000 0.300000 0.000000
2.400000 0.300000 0.000000
2.500000 0.300000 0.000000
2.600000 0.300000 0.000000
2.700000 0.300000 0.000000
2.800000 0.300000 0.000000
2.900000 0.300000 0.000000
3.000000 0.300000 0.000000
3.100000 0.300000 0.000000
3.200000 0.300000 0.000000
3.300000 0.300000 0.000000
3.400000 0.300000 0.000000
3.500000 0.300000 0.000000
3.600000 0.300000 0.000000
3.700000 0.300000 0.000000
3.800000 0.300000 0.000000
3.900000 0.300000 0.000000
4.000000 0.300000 0.000000
0.000000 0.400000 0.000000
0.100000 0.400000 0.000000
0.200000 0.400000 0.000000
0.300000 0.400000 0.000000
0.400000 0.400000 0.000000
0.500000 0.400000 0.000000
0.600000 0.400000 0.000000
0.700000 0.400000 0.000000
0.800000 0.400000 0.000000
0.900000 0.400000 0.000000
1.000000 0.400000 0.000000
1.100000 0.400000 0.000000
1.200000 0.400000 0.000000
1.300000 0.400000 0.000000
1.400000 0.400000 0.000000
1.500000 0.400000 0.000000
1.600000 0.400000 0.000000
1.700000 0.400000 0.000000
1.800000 0.400000 0.000000
1.900000 0.400000 0.000000
2.000000 0.400000 0.000000
2.100000 0.400000 0.000000
2.200000 0.400000 0.000000
2.300000 0.400000 0.000000
2.400000 0.400000 0.000000
2.500000 0.400000 0.000000
2.600000 0.400000 0.000000
2.700000 0.400000 0.000000
2.800000 0.400000 0.000000
2.900000 0.400000 0.000000
3.000000 0.400000 0.000000
3.100000 0.400000 0.000000
3.200000 0.400000 0.000000
3.300000 0.400000 0.000000
3.400000 0.400000 0.000000
3.500000 0.400000 0.000000
3.600000 0.400000 0.000000
3.700000 0.400000 0.000000
3.800000 0.400000 0.000000
3.900000 0.400000 0.000000
4.000000 0.400000 0.000000
0.000000 0.500000 0.000000
0.100000 0.500000 0.000000
0.200000 0.500000 0.000000
0.300000 0.500000 0.000000
0.400000 0.500000 0.000000
0.500000 0.500000 0.000000
0.600000 0.500000 0.000000
0.700000 0.500000 0.000000
0.800000 0.500000 0.000000
0.900000 0.500000 0.000000
1.000000 0.500000 0.000000
1.100000 0.500000 0.000000
1.200000 0.500000 0.000000
1.300000 0.500000 0.000000
1.400000 0.500000 0.000000
1.500000 0.500000 0.000000
1.600000 0.500000 0.000000
1.700000 0.500000 0.000000
1.800000 0.500000 0.000000
1.900000 0.500000 0.000000
2.000000 0.500000 0.000000
2.100000 0.500000 0.000000
2.200000 0.500000 0.000000
2.300000 0.500000 0.000000
2.400000 0.500000 0.000000
2.500000 0.500000 0.000000
2.600000 0.500000 0.000000
2.700000 0.500000 0.000000
2.800000 0.500000 0.000000
2.900000 0.500000 0.000000
3.000000 0.500000 0.000000
3.100000 0.500000 0.000000
3.200000 0.500000 0.000000
3.300000 0.500000 0.000000
3.400000 0.500000 0.000000
3.500000 0.500000 0.000000
3.600000 0.500000 0.000000
3.700000 0.500000 0.000000
3.800000 0.500000 0.000000
3.900000 0.500000 0.000000
4.000000 0.500000 0.000000
0.000000 0.600000 0.000000
0.100000 0.600000 0.000000
0.200000 0.600000 0.000000
0.300000 0.600000 0.000000
0.400000 0.600000 0.000000
0.500000 0.600000 0.000000
0.600000 0.600000 0.000000
0.700000 0.600000 0.000000
0.800000 0.600000 0.000000
0.900000 0.600000 0.000000
1.000000 0.600000 0.000000
1.100000 0.600000 0.000000
1.200000 0.600000 0.000000
1.300000 0.600000 0.000000
1.400000 0.600000 0.000000
1.500000 0.600000 0.000000
1.600000 0.600000 0.000000
1.700000 0.600000 0.000000
1.800000 0.600000 0.000000
1.900000 0.600000 0.000000
2.000000 0.600000 0.000000
2.100000 0.600000 0.000000
2.200000 0.600000 0.000000
2.300000 0.600000 0.000000
2.400000 0.600000 0.000000
2.500000 0.600000 0.000000
2.600000 0.600000 0.000000
2.700000 0.600000 0.000000
2.800000 0.600000 0.000000
2.900000 0.600000 0.000000
3.000000 0.600000 0.000000
3.100000 0.600000 0.000000
3.200000 0.600000 0.000000
3.300000 0.600000 0.000000
3.400000 0.600000 0.000000
3.500000 0.600000 0.000000
3.600000 0.600000 0.000000
3.700000 0.600000 0.000000
3.800000 0.600000 0.000000
3.900000 0.600000 0.000000
4.000000 0.600000 0.000000
0.000000 0.700000 0.000000
0.100000 0.700000 0.000000
0.200000 0.700000 0.000000
0.300000 0.700000 0.000000
0.400000 0.700000 0.000000
0.500000 0.700000 0.000000
0.600000 0.700000 0.000000
0.700000 0.700000 0.000000
0.800000 0.700000 0.000000
0.900000 0.700000 0.000000
1.000000 0.700000 0.000000
1.100000 0.700000 0.000000
1.200000 0.700000 0.000000
1.300000 0.700000 0.000000
1.400000 0.700000 0.000000
1.500000 0.700000 0.000000
1.600000 0.700000 0.000000
1.700000 0.700000 0.000000
1.800000 0.700000 0.000000
1.900000 0.700000 0.000000
2.000000 0.700000 0.000000
2.100000 0.700000 0.000000
2.200000 0.700000 0.000000
2.300000 0.700000 0.000000
2.400000 0.700000 0.000000
2.500000 0.700000 0.000000
2.600000 0.700000 0.000000
2.700000 0.700000 0.000000
2.800000 0.700000 0.000000
2.900000 0.700000 0.000000
3.000000 0.700000 0.000000
3.100000 0.700000 0.000000
3.200000 0.700000 0.000000
3.300000 0.700000 0.000000
3.400000 0.700000 0.000000
3.500000 0.700000 0.000000
3.600000 0.700000 0.000000
3.700000 0.700000 0.000000
3.800000 0.700000 0.000000
3.900000 0.700000 0.000000
4.000000 0.700000 0.000000
0.000000 0.800000 0.000000
0.100000 0.800000 0.000000
0.200000 0.800000 0.000000
0.300000 0.800000 0.000000
0.400000 0.800000 0.000000
0.500000 0.800000 0.000000
0.600000 0.800000 0.000000
0.700000 0.800000 0.000000
0.800000 0.800000 0.000000
0.900000 0.800000 0.000000
1.000000 0.800000 0.000000
1.100000 0.800000 0.000000
1.200000 0.800000 0.000000
1.300000 0.800000 0.000000
1.400000 0.800000 0.000000
1.500000 0.800000 0.000000
1.600000 0.800000 0.000000
1.700000 0.800000 0.000000
1.800000 0.800000 0.000000
1.900000 0.800000 0.000000
2.000000 0.800000 0.000000
2.100000 0.800000 0.000000
2.200000 0.800000 0.000000
2.300000 0.800000 0.000000
2.400000 0.800000 0.000000
2.500000 0.800000 0.000000
2.600000 0.800000 0.000000
2.700000 0.800000 0.000000
2.800000 0.800000 0.000000
2.900000 0.800000 0.000000
3.000000 0.800000 0.000000
3.100000 0.800000 0.000000
3.200000 0.800000 0.000000
3.300000 0.800000 0.000000
3.400000 0.800000 0.000000
3.500000 0.800000 0.000000
3.600000 0.800000 0.000000
[...]
CELL_DATA 16000
SCALARS pressure float 1
LOOKUP_TABLE default
37.4343
37.2601
36.9222
36.4499
35.8653
35.1813
34.4022
33.5262
32.5472
31.4587
30.2564
28.9425
27.5273
26.0299
24.477
22.8999
21.3316
19.803
18.3403
16.9627
15.6813
14.4984
13.4097
12.4056
11.4737
10.6009
9.77468
8.98408
8.21989
7.47478
6.74314
6.02078
5.30465
4.59263
3.88322
3.17544
2.46865
1.76251
1.05688
0.35186
37.4886
37.2898
36.9385
36.4587
35.8701
35.1841
34.4044
33.5285
32.5502
31.4622
30.2604
28.9463
27.5303
26.0317
24.4773
22.8987
21.3291
19.7995
18.3363
16.9587
15.6777
14.4956
13.4078
12.4045
11.4734
10.6011
9.77527
8.98485
8.22071
7.47557
6.74386
6.02139
5.30517
4.59304
3.88354
3.17569
2.46884
1.76264
1.05693
0.351782
37.6095
37.3755
37.0014
36.5076
35.9115
35.2228
34.444
33.5712
32.5965
31.511
30.3088
28.9902
27.5655
26.0547
24.4861
22.8927
21.3093
19.7683
18.297
16.9153
15.634
14.4548
13.3721
12.3748
11.4498
10.5831
9.76198
8.97537
8.21415
7.47117
6.74099
6.0196
5.30409
4.59243
3.88323
3.17554
2.46878
1.76258
1.05683
0.351621
37.777
37.502
37.0996
36.5883
35.9833
35.2928
34.5173
33.651
32.6833
31.6023
30.3989
29.0717
27.6304
26.0965
24.5011
22.88
21.271
19.7087
18.2224
16.8331
15.5514
14.3778
13.3045
12.3185
11.4048
10.5485
9.73626
8.95679
8.20108
7.46221
6.73501
6.01571
5.30165
4.59095
3.88237
3.17506
2.46851
1.76241
1.05667
0.351476
37.9703
37.654
37.2219
36.6921
36.0786
35.388
34.6189
33.7628
32.8057
31.7315
30.5268
29.1871
27.7216
26.1545
24.5206
22.86
21.2144
19.6219
18.1146
16.7149
15.4332
14.2681
13.2086
12.2389
11.3414
10.4999
9.70013
8.93066
8.18267
7.44955
6.72652
6.01015
5.2981
4.58876
3.88107
3.17432
2.46809
1.76217
1.05651
0.351381
38.1694
37.8153
37.3552
36.8082
36.1878
35.4992
34.7394
33.8969
32.9537
31.8886
30.6828
29.3278
27.8327
26.2244
24.5429
22.8336
21.1432
19.5139
17.9811
16.5693
15.2885
14.1346
13.0927
12.1431
11.2656
10.4419
9.65712
8.89963
8.16083
7.43454
6.71643
6.00353
5.29387
4.58614
3.87949
3.17341
2.46759
1.7619
1.05637
0.351338
38.3553
37.9694
37.4852
36.9238
36.2986
35.6141
34.8654
34.0385
33.1113
32.0569
30.8506
29.4797
27.9524
26.2994
24.5661
22.8039
21.0648
19.3959
17.836
16.4118
15.133
13.992
12.9695
12.042
11.1858
10.3812
9.61226
8.86735
8.13815
7.41896
6.70597
5.99667
5.28948
4.58341
3.87785
3.17246
2.46707
1.76164
1.05627
0.351339
38.5114
38.1008
37.5978
37.0255
36.3976
35.718
34.9807
34.1692
33.2576
32.2142
31.0083
29.623
28.0655
26.3702
24.5878
22.7751
20.9901
19.2839
17.6988
16.2637
14.9875
13.8593
12.8556
11.9488
11.1127
10.3257
9.57141
8.83803
8.11759
7.40487
6.69652
5.99047
5.28552
4.58094
3.87637
3.17161
2.46662
1.76142
1.0562
0.351365
38.6238
38.1964
37.6807
37.1012
36.472
35.7969
35.0688
34.2697
33.3709
32.3365
31.1316
29.7354
28.1547
26.4262
24.605
22.7524
20.9309
19.1955
17.5911
16.148
14.8744
13.7565
12.7678
11.8773
11.0568
10.2834
9.54031
8.81574
8.102
7.39419
6.68936
5.98578
5.28252
4.57908
3.87525
3.17097
2.46627
1.76126
1.05616
0.351397
38.6826
38.2468
37.7247
37.1416
36.512
35.8395
35.1167
34.3245
33.4328
32.4036
31.1993
29.7974
28.2041
26.4574
24.6146
22.7398
20.8982
19.1468
17.5318
16.0846
14.8125
13.7005
12.72
11.8384
11.0264
10.2605
9.5235
8.80372
8.09359
7.38843
6.6855
5.98326
5.2809
4.57807
3.87465
3.17062
2.46609
1.76118
1.05614
0.351418
38.6827
38.2469
37.7248
37.1417
36.5122
35.8397
35.1168
34.3246
33.4329
32.4037
31.1995
29.7975
28.2042
26.4575
24.6146
22.7398
20.8983
19.1468
17.5319
16.0847
14.8125
13.7005
12.72
11.8385
11.0265
10.2605
9.5235
8.80371
8.09358
7.38843
6.6855
5.98326
5.2809
4.57807
3.87464
3.17062
2.46609
1.76118
1.05614
0.35142
38.6241
38.1967
37.6811
37.1015
36.4724
35.7973
35.0692
34.2701
33.3713
32.3369
31.1319
29.7358
28.155
26.4265
24.6052
22.7526
20.9312
19.1958
17.5914
16.1483
14.8745
13.7567
12.7679
11.8773
11.0568
10.2834
9.54031
8.81574
8.10199
7.39418
6.68935
5.98578
5.28251
4.57907
3.87524
3.17097
2.46627
1.76126
1.05616
0.351402
38.5119
38.1013
37.5983
37.026
36.3981
35.7186
34.9813
34.1698
33.2583
32.2148
31.009
29.6236
28.0661
26.3707
24.5882
22.7755
20.9904
19.2842
17.6991
16.264
14.9877
13.8594
12.8557
11.9489
11.1128
10.3257
9.5714
8.83801
8.11758
7.40485
6.6965
5.99046
5.2855
4.58093
3.87636
3.17161
2.46661
1.76142
1.0562
0.351374
38.356
37.9701
37.4859
36.9245
36.2993
35.6149
34.8662
34.0394
33.1123
32.0579
30.8516
29.4807
27.9532
26.3001
24.5667
22.8043
21.0652
19.3962
17.8362
16.412
15.1332
13.992
12.9696
12.042
11.1858
10.3812
9.61223
8.86731
8.13812
7.41893
6.70594
5.99665
5.28946
4.58339
3.87784
3.17246
2.46707
1.76164
1.05627
0.35135
38.1702
37.8162
37.356
36.8091
36.1887
35.5002
34.7405
33.898
32.955
31.8899
30.6841
29.3291
27.8338
26.2254
24.5436
22.8342
21.1436
19.5142
17.9812
16.5693
15.2886
14.1345
13.0926
12.143
11.2655
10.4418
9.65705
8.89957
8.16078
7.43449
6.71639
6.0035
5.29385
4.58612
3.87948
3.1734
2.46759
1.7619
1.05638
0.351351
37.9713
37.655
37.2229
36.6931
36.0797
35.3891
34.6201
33.7641
32.8072
31.733
30.5283
29.1885
27.723
26.1557
24.5215
22.8606
21.2148
19.6222
18.1147
16.7148
15.4331
14.268
13.2085
12.2387
11.3413
10.4998
9.70003
8.93057
8.1826
7.4495
6.72647
6.01011
5.29807
4.58874
3.88105
3.17431
2.46809
1.76217
1.05652
0.351394
37.778
37.503
37.1007
36.5894
35.9845
35.294
34.5187
33.6524
32.6849
31.604
30.4006
29.0733
27.6318
26.0978
24.502
22.8807
21.2714
19.7089
18.2224
16.833
15.5512
14.3776
13.3042
12.3183
11.4046
10.5484
9.73613
8.95668
8.20099
7.46214
6.73496
6.01567
5.30161
4.59092
3.88235
3.17505
2.4685
1.76241
1.05667
0.351489
37.6106
37.3766
37.0025
36.5088
35.9127
35.2242
34.4455
33.5728
32.5982
31.5128
30.3105
28.9919
27.5671
26.056
24.4871
22.8934
21.3097
19.7684
18.297
16.9151
15.6337
14.4545
13.3718
12.3746
11.4495
10.5829
9.76182
8.97524
8.21404
7.47108
6.74093
6.01955
5.30405
4.5924
3.88321
3.17553
2.46877
1.76258
1.05683
0.351631
37.4897
37.2909
36.9396
36.4598
35.8713
35.1854
34.4058
33.5301
32.5518
31.464
30.2622
28.948
27.5319
26.0331
24.4784
22.8995
21.3295
19.7997
18.3362
16.9585
15.6774
14.4953
13.4075
12.4042
11.4731
10.6009
9.77509
8.98471
8.2206
7.47549
6.74379
6.02134
5.30512
4.59301
3.88352
3.17567
2.46883
1.76263
1.05693
0.351788
37.4354
37.2612
36.9233
36.451
35.8665
35.1826
34.4036
33.5277
32.5489
31.4604
30.2582
28.9442
27.5289
26.0312
24.478
22.9006
21.332
19.8031
18.3402
16.9625
15.681
14.4981
13.4094
12.4053
11.4734
10.6007
9.7745
8.98394
8.21977
7.47469
6.74307
6.02072
5.30461
4.5926
3.88319
3.17542
2.46864
1.76251
1.05688
0.351862
37.4886
37.2898
36.9385
36.4587
35.8701
35.184
34.4043
33.5285
32.5501
31.4622
30.2604
28.9463
27.5303
26.0317
24.4773
22.8987
21.3291
19.7995
18.3363
16.9587
15.6777
14.4956
13.4078
12.4046
11.4734
10.6011
9.77528
8.98486
8.22071
7.47558
6.74386
6.02139
5.30517
4.59304
3.88354
3.17569
2.46884
1.76264
1.05693
0.351782
37.5288
37.2925
36.9214
36.4316
35.8374
35.1475
34.3645
33.4857
32.5052
31.4168
30.2167
28.9071
27.4984
26.0094
24.4664
22.8998
21.3417
19.8223
18.3671
16.9947
15.716
14.5337
13.4436
12.4366
11.501
10.6241
9.79392
8.99957
8.23207
7.48417
6.75024
6.02606
5.30853
4.59543
3.88523
3.17687
2.46967
1.76323
1.05733
0.351898
37.6436
37.3628
36.9635
36.4566
35.8525
35.1574
34.3723
33.4935
32.5141
31.4268
30.2271
28.9166
27.5055
26.0131
24.466
22.8955
21.334
19.8122
18.3557
16.9834
15.7059
14.5256
13.4378
12.4331
11.4994
10.624
9.7948
9.00102
8.23376
7.48589
6.75184
6.02747
5.30973
4.59641
3.88601
3.17748
2.47014
1.76356
1.05751
0.351865
37.8128
37.4813
37.0488
36.5209
35.905
35.205
34.4199
33.5441
32.5686
31.484
30.2833
28.9669
27.5447
26.0372
24.4727
22.8844
21.3068
19.7719
18.3065
16.9302
15.6534
14.4774
13.3964
12.3993
11.4732
10.6045
9.78077
8.99135
8.22736
7.48184
6.74942
6.02613
5.30908
4.59618
3.88602
3.1776
2.47029
1.76369
1.05757
0.351829
38.0124
37.6294
37.1622
36.6125
35.985
35.2814
34.4987
33.6289
32.6602
31.5797
30.3773
29.0508
27.6101
26.0773
24.484
22.8664
21.262
19.7052
18.2248
16.8415
15.5654
14.3962
13.3259
12.3411
11.4271
10.5694
9.75498
8.97295
8.21463
7.47328
6.74385
6.02264
5.30698
4.595
3.88541
3.17733
2.47021
1.76368
1.05758
0.351833
38.2194
37.7887
37.2889
36.7187
36.081
35.3757
34.5978
33.7367
32.7774
31.7026
30.4982
29.1588
27.6939
26.1285
24.498
22.8426
21.2037
19.6188
18.1191
16.7269
15.452
14.292
13.2354
12.2664
11.368
10.5242
9.72151
8.94888
8.19778
7.4618
6.73624
6.01773
5.30392
4.59317
3.88438
3.17679
2.46996
1.76359
1.05757
0.351881
38.4133
37.9417
37.4136
36.826
36.1803
35.4752
34.7038
33.8532
32.9048
31.8371
30.631
29.2778
27.7863
26.1847
24.513
22.8158
21.1389
19.5231
18.0024
16.601
15.328
14.1783
13.1371
12.1855
11.304
10.4753
9.68532
8.92281
8.17947
7.44926
6.72786
6.01229
5.30049
4.59108
3.88316
3.17613
2.46963
1.76346
1.05756
0.351961
38.5761
38.0724
37.522
36.9209
36.2697
35.566
34.8017
33.9617
33.0243
31.9639
30.7569
29.391
27.8744
26.2385
24.5274
22.7901
21.0768
19.4318
17.8915
16.4818
15.2111
14.0717
13.0454
12.1102
11.2446
10.4301
9.65182
8.89867
8.16251
7.43761
6.72006
6.00719
5.29725
4.5891
3.88199
3.17549
2.46931
1.76334
1.05756
0.352051
38.6934
38.1676
37.6019
36.9917
36.3371
35.6352
34.8769
34.0455
33.117
32.0628
30.8557
29.4802
27.9442
26.2814
24.539
22.7697
21.0276
19.3597
17.8043
16.3885
15.1201
13.989
12.9744
12.0521
11.1989
10.3953
9.62611
8.88016
8.1495
7.42868
6.71407
6.00327
5.29476
4.58756
3.88108
3.17498
2.46905
1.76323
1.05756
0.352128
38.7547
38.2177
37.6443
37.0295
36.3734
35.6726
34.9177
34.0912
33.1678
32.1171
30.91
29.5295
27.983
26.3053
24.5455
22.7585
21.0004
19.3198
17.7563
16.3373
15.0703
13.9438
12.9358
12.0206
11.1741
10.3764
9.61217
8.87012
8.14244
7.42384
6.71082
6.00115
5.2934
4.58672
3.88059
3.1747
2.46891
1.76318
1.05756
0.352172
38.7548
38.2178
37.6444
37.0297
36.3735
35.6727
34.9178
34.0913
33.1679
32.1172
30.9101
29.5296
27.9831
26.3054
24.5456
22.7586
21.0005
19.3199
17.7564
16.3374
15.0703
13.9439
12.9358
12.0206
11.1741
10.3764
9.61217
8.87012
8.14244
7.42384
6.71082
6.00114
5.2934
4.58672
3.88059
3.1747
2.46891
1.76318
1.05756
0.352173
38.6937
38.1679
37.6022
36.992
36.3374
35.6355
34.8772
34.0458
33.1174
32.0632
30.856
29.4806
27.9445
26.2816
24.5392
22.7699
21.0279
19.3599
17.8045
16.3887
15.1202
13.9891
12.9745
12.0522
11.1989
10.3953
9.62611
8.88015
8.14948
7.42867
6.71406
6.00326
5.29475
4.58755
3.88108
3.17497
2.46905
1.76323
1.05755
0.352129
38.5767
38.0729
37.5225
36.9214
36.2702
35.5665
34.8023
33.9623
33.0249
31.9645
30.7576
29.3916
27.8749
26.239
24.5278
22.7904
21.0771
19.4321
17.8918
16.482
15.2113
14.0718
13.0455
12.1102
11.2446
10.4301
9.6518
8.89865
8.16249
7.43759
6.72004
6.00718
5.29724
4.58909
3.88198
3.17548
2.4693
1.76333
1.05755
0.352053
38.414
37.9423
37.4142
36.8267
36.181
35.4759
34.7046
33.8541
32.9057
31.838
30.632
29.2787
27.7871
26.1854
24.5136
22.8163
21.1392
19.5234
18.0027
16.6012
15.3281
14.1783
13.1372
12.1855
11.304
10.4753
9.68528
8.92277
8.17944
7.44922
6.72783
6.01226
5.30047
4.59107
3.88315
3.17612
2.46962
1.76345
1.05755
0.351963
38.2203
37.7895
37.2897
36.7196
36.0819
35.3767
34.5988
33.7378
32.7785
31.7038
30.4994
29.16
27.695
26.1294
24.4987
22.8431
21.2041
19.619
18.1193
16.727
15.4521
14.2919
13.2353
12.2663
11.3679
10.5241
9.72144
8.94882
8.19773
7.46175
6.7362
6.0177
5.3039
4.59315
3.88436
3.17678
2.46995
1.76358
1.05756
0.351884
38.0134
37.6303
37.1632
36.6135
35.986
35.2825
34.4999
33.6302
32.6616
31.5811
30.3788
29.0522
27.6113
26.0783
24.4848
22.867
21.2624
19.7054
18.2249
16.8414
15.5653
14.3961
13.3257
12.341
11.427
10.5693
9.75488
8.97286
8.21455
7.47322
6.7438
6.0226
5.30695
4.59497
3.88539
3.17732
2.47019
1.76367
1.05757
0.351837
37.8139
37.4824
37.0498
36.522
35.9061
35.2062
34.4212
33.5455
32.5702
31.4856
30.285
28.9685
27.5462
26.0384
24.4737
22.8851
21.3072
19.7721
18.3065
16.9301
15.6532
14.4772
13.3961
12.3991
11.473
10.6043
9.78063
8.99123
8.22727
7.48176
6.74936
6.02609
5.30904
4.59616
3.886
3.17759
2.47028
1.76368
1.05756
0.351834
37.6447
37.3639
36.9646
36.4577
35.8537
35.1587
34.3737
33.495
32.5158
31.4285
30.2288
28.9182
27.507
26.0143
24.467
22.8962
21.3344
19.8124
18.3557
16.9832
15.7056
14.5253
13.4375
12.4328
11.4992
10.6239
9.79464
9.00089
8.23366
7.4858
6.75178
6.02742
5.30968
4.59638
3.88599
3.17746
2.47013
1.76355
1.0575
0.351869
37.5299
37.2935
36.9225
36.4328
35.8386
35.1488
34.3659
33.4872
32.5069
31.4185
30.2184
28.9088
27.4999
26.0108
24.4674
22.9005
21.3421
19.8225
18.367
16.9945
15.7158
14.5334
13.4433
12.4363
11.5008
10.6239
9.79374
8.99942
8.23195
7.48408
6.75017
6.02601
5.30849
4.5954
3.8852
3.17685
2.46966
1.76322
1.05733
0.351902
37.4897
37.2909
36.9395
36.4598
35.8712
35.1853
34.4057
33.53
32.5518
31.464
30.2621
28.948
27.5319
26.033
24.4784
22.8995
21.3295
19.7996
18.3362
16.9585
15.6774
14.4953
13.4075
12.4042
11.4731
10.6009
9.7751
8.98471
8.2206
7.47549
6.74379
6.02134
5.30512
4.59301
3.88352
3.17567
2.46883
1.76263
1.05692
0.351783
37.6095
37.3755
37.0014
36.5076
35.9115
35.2228
34.444
33.5712
32.5964
31.511
30.3087
28.9901
27.5654
26.0547
24.486
22.8927
21.3093
19.7683
18.297
16.9153
15.634
14.4549
13.3721
12.3749
11.4498
10.5831
9.76201
8.97538
8.21416
7.47118
6.741
6.0196
5.30409
4.59244
3.88323
3.17555
2.46878
1.76258
1.05683
0.351621
37.6436
37.3628
36.9635
36.4566
35.8525
35.1574
34.3723
33.4935
32.5141
31.4268
30.2271
28.9165
27.5054
26.013
24.466
22.8954
21.334
19.8122
18.3557
16.9834
15.7059
14.5256
13.4378
12.4331
11.4995
10.6241
9.79481
9.00103
8.23377
7.48589
6.75185
6.02748
5.30973
4.59642
3.88601
3.17748
2.47014
1.76356
1.05751
0.351865
37.7519
37.4223
36.9904
36.463
35.8464
35.1437
34.3543
33.4733
32.4934
31.4067
30.2083
28.8997
27.4908
26.0013
24.4579
22.8917
21.3349
19.8176
18.3652
16.9965
15.7218
14.5432
13.4562
12.4511
11.5163
10.6391
9.8078
9.01191
8.24266
7.49299
6.7574
6.03175
5.31296
4.59884
3.88781
3.1788
2.4711
1.76424
1.05792
0.35191
37.9199
37.5348
37.0655
36.5141
35.8832
35.1734
34.382
33.5024
32.5255
31.4413
30.2429
28.9302
27.5131
26.0126
24.4572
22.8793
21.3124
19.7874
18.3303
16.9607
15.6884
14.5148
13.4336
12.4345
11.5049
10.632
9.80383
9.01014
8.24232
7.49349
6.75834
6.03286
5.31407
4.59985
3.88869
3.17954
2.47168
1.76467
1.05817
0.35195
38.1234
37.681
37.1728
36.5965
35.9516
35.2363
34.4457
33.5711
32.6005
31.5208
30.3214
28.9995
27.565
26.0415
24.4607
22.8579
21.2687
19.7259
18.2572
16.8833
15.614
14.4484
13.378
12.3902
11.4712
10.6073
9.78651
8.99843
8.23472
7.48881
6.75564
6.03145
5.31347
4.59974
3.88883
3.1798
2.47197
1.76492
1.05835
0.352037
38.3379
37.8412
37.2961
36.6964
36.0392
35.3206
34.5336
33.6672
32.7061
31.633
30.4324
29.0977
27.6385
26.0827
24.4666
22.829
21.2085
19.6404
18.1549
16.775
15.5096
14.355
13.2993
12.327
11.4224
10.571
9.76027
8.98007
8.22226
7.48062
6.75045
6.02831
5.31169
4.59881
3.88844
3.1797
2.47204
1.76505
1.0585
0.352176
38.5405
37.9967
37.4193
36.7995
36.1325
35.4127
34.6315
33.7755
32.8262
31.7616
30.5607
29.2117
27.7237
26.1307
24.4737
22.7958
21.1394
19.5422
18.0372
16.6506
15.3906
14.2491
13.2102
12.2555
11.3671
10.5296
9.7302
8.95882
8.20765
7.47085
6.74411
6.02434
5.30931
4.59747
3.88775
3.17941
2.47197
1.76511
1.05862
0.352346
38.7115
38.1302
37.5272
36.8918
36.2177
35.4983
34.7237
33.8786
32.9416
31.8864
30.6862
29.3241
27.8082
26.1787
24.4814
22.7634
21.0714
19.4459
17.9221
16.5299
15.2757
14.1476
13.1253
12.1875
11.3146
10.4903
9.7016
8.93854
8.19363
7.4614
6.73792
6.0204
5.3069
4.59607
3.88699
3.17905
2.47184
1.76512
1.05871
0.352516
38.8351
38.2278
37.6071
36.961
36.2825
35.5643
34.7954
33.9593
33.0325
31.9853
30.7864
29.4148
27.8774
26.2189
24.4885
22.7373
21.016
19.3681
17.83
16.4341
15.1852
14.068
13.059
12.1345
11.2738
10.4598
9.67937
8.92275
8.18269
7.45401
6.73305
6.01729
5.30498
4.59493
3.88636
3.17874
2.47173
1.76512
1.05878
0.352654
38.8998
38.2792
37.6495
36.9981
36.3175
35.6
34.8345
34.0036
33.0825
32.0399
30.842
29.4654
27.9167
26.2423
24.493
22.7226
20.9846
19.3244
17.779
16.3813
15.1355
14.0244
13.0228
12.1057
11.2515
10.4431
9.66725
8.91415
8.17672
7.44997
6.73038
6.01558
5.30391
4.5943
3.88601
3.17856
2.47166
1.76511
1.05882
0.35273
38.8999
38.2793
37.6496
36.9982
36.3176
35.6001
34.8346
34.0037
33.0826
32.04
30.842
29.4655
27.9167
26.2423
24.4931
22.7226
20.9847
19.3245
17.7791
16.3814
15.1356
14.0245
13.0228
12.1057
11.2515
10.4431
9.66725
8.91414
8.17672
7.44996
6.73038
6.01557
5.30391
4.5943
3.886
3.17856
2.47166
1.76511
1.05882
0.35273
38.8354
38.2281
37.6074
36.9613
36.2828
35.5646
34.7957
33.9597
33.0329
31.9856
30.7867
29.415
27.8776
26.2191
24.4887
22.7375
21.0162
19.3684
17.8303
16.4344
15.1854
14.0681
13.0591
12.1346
11.2738
10.4598
9.67936
8.92274
8.18268
7.45399
6.73304
6.01728
5.30497
4.59492
3.88635
3.17873
2.47172
1.76512
1.05878
0.352653
38.7121
38.1307
37.5277
36.8923
36.2182
35.4989
34.7243
33.8792
32.9422
31.887
30.6868
29.3247
27.8087
26.1791
24.4817
22.7638
21.0717
19.4463
17.9224
16.5301
15.2759
14.1477
13.1254
12.1875
11.3146
10.4903
9.70158
8.93852
8.1936
7.46138
6.7379
6.02038
5.30688
4.59605
3.88698
3.17904
2.47184
1.76512
1.05871
0.352515
38.5412
37.9973
37.4199
36.8002
36.1332
35.4134
34.6323
33.7763
32.8271
31.7626
30.5616
29.2126
27.7245
26.1313
24.4742
22.7963
21.1397
19.5425
18.0374
16.6508
15.3907
14.2492
13.2103
12.2555
11.3671
10.5295
9.73016
8.95878
8.20761
7.47081
6.74408
6.02431
5.30928
4.59745
3.88773
3.1794
2.47196
1.7651
1.05861
0.352344
38.3387
37.8421
37.297
36.6973
36.0401
35.3215
34.5346
33.6683
32.7073
31.6343
30.4337
29.0989
27.6396
26.0836
24.4673
22.8295
21.2089
19.6406
18.155
16.775
15.5096
14.355
13.2992
12.3269
11.4223
10.5709
9.7602
8.98
8.22221
7.48057
6.75041
6.02828
5.31166
4.59879
3.88842
3.17969
2.47203
1.76505
1.05849
0.352174
38.1244
37.682
37.1738
36.5975
35.9526
35.2374
34.4469
33.5724
32.602
31.5223
30.3229
29.001
27.5663
26.0426
24.4615
22.8585
21.2691
19.726
18.2572
16.8832
15.6139
14.4482
13.3778
12.3901
11.4711
10.6072
9.7864
8.99834
8.23464
7.48874
6.75558
6.0314
5.31344
4.59971
3.88881
3.17978
2.47196
1.76492
1.05834
0.352035
37.921
37.5359
37.0666
36.5151
35.8843
35.1746
34.3833
33.5039
32.527
31.443
30.2446
28.9318
27.5146
26.0138
24.4581
22.88
21.3128
19.7875
18.3303
16.9605
15.6882
14.5145
13.4334
12.4343
11.5047
10.6318
9.80369
9.01003
8.24223
7.49342
6.75828
6.03281
5.31403
4.59982
3.88867
3.17952
2.47168
1.76466
1.05816
0.351948
37.7531
37.4234
36.9915
36.4642
35.8476
35.145
34.3557
33.4748
32.495
31.4084
30.2101
28.9013
27.4923
26.0026
24.4589
22.8924
21.3353
19.8177
18.3652
16.9963
15.7215
14.5429
13.4559
12.4508
11.516
10.6389
9.80763
9.01178
8.24255
7.4929
6.75733
6.0317
5.31292
4.5988
3.88778
3.17878
2.47109
1.76423
1.0579
0.351909
37.6447
37.3639
36.9646
36.4577
35.8537
35.1587
34.3737
33.495
32.5158
31.4286
30.2289
28.9183
27.507
26.0144
24.4671
22.8962
21.3344
19.8123
18.3556
16.9831
15.7056
14.5252
13.4375
12.4328
11.4992
10.6238
9.79463
9.00088
8.23366
7.4858
6.75178
6.02742
5.30968
4.59638
3.88599
3.17747
2.47013
1.76356
1.0575
0.351866
37.6106
37.3766
37.0025
36.5087
35.9126
35.2241
34.4454
33.5727
32.5982
31.5128
30.3106
28.992
27.5671
26.0561
24.4871
22.8934
21.3097
19.7684
18.2969
16.915
15.6337
14.4545
13.3717
12.3745
11.4495
10.5829
9.76182
8.97523
8.21404
7.47108
6.74092
6.01955
5.30405
4.5924
3.88321
3.17553
2.46877
1.76258
1.05682
0.35162
37.777
37.502
37.0996
36.5883
35.9833
35.2927
34.5172
33.6509
32.6832
31.6021
30.3988
29.0715
27.6302
26.0964
24.501
22.88
21.2709
19.7087
18.2225
16.8332
15.5515
14.3779
13.3046
12.3186
11.4049
10.5486
9.73631
8.95682
8.2011
7.46223
6.73502
6.01572
5.30165
4.59095
3.88237
3.17506
2.46851
1.76241
1.05667
0.351477
37.8128
37.4813
37.0487
36.5209
35.905
35.205
34.4199
33.544
32.5685
31.4838
30.2832
28.9668
27.5446
26.0371
24.4727
22.8844
21.3068
19.7719
18.3066
16.9303
15.6534
14.4775
13.3964
12.3994
11.4732
10.6045
9.7808
8.99137
8.22738
7.48185
6.74943
6.02614
5.30908
4.59619
3.88602
3.1776
2.47029
1.76369
1.05757
0.35183
37.9199
37.5348
37.0655
36.5141
35.8831
35.1734
34.382
33.5024
32.5254
31.4412
30.2429
28.9301
27.5131
26.0126
24.4571
22.8793
21.3124
19.7874
18.3304
16.9607
15.6885
14.5148
13.4337
12.4346
11.5049
10.632
9.80384
9.01016
8.24233
7.4935
6.75835
6.03286
5.31407
4.59985
3.88869
3.17954
2.47168
1.76467
1.05817
0.35195