# vtk DataFile Version 2.0
I need something to put here
ASCII

DATASET STRUCTURED_GRID
DIMENSIONS 14 11 21
POINTS 3234 float
2.700000 1.000000 0.000000
2.800000 1.000000 0.000000
2.900000 1.000000 0.000000
3.000000 1.000000 0.000000
3.100000 1.000000 0.000000
3.200000 1.000000 0.000000
3.300000 1.000000 0.000000
3.400000 1.000000 0.000000
3.500000 1.000000 0.000000
3.600000 1.000000 0.000000
3.700000 1.000000 0.000000
3.800000 1.000000 0.000000
3.900000 1.000000 0.000000
4.000000 1.000000 0.000000
2.700000 1.100000 0.000000
2.800000 1.100000 0.000000
2.900000 1.100000 0.000000
3.000000 1.100000 0.000000
3.100000 1.100000 0.000000
3.200000 1.100000 0.000000
3.300000 1.100000 0.000000
3.400000 1.100000 0.000000
3.500000 1.100000 0.000000
3.600000 1.100000 0.000000
3.700000 1.100000 0.000000
3.800000 1.100000 0.000000
3.900000 1.100000 0.000000
4.000000 1.100000 0.000000
2.700000 1.200000 0.000000
2.800000 1.200000 0.000000
2.900000 1.200000 0.000000
3.000000 1.200000 0.000000
3.100000 1.200000 0.000000
3.200000 1.200000 0.000000
3.300000 1.200000 0.000000
3.400000 1.200000 0.000000
3.500000 1.200000 0.000000
3.600000 1.200000 0.000000
3.700000 1.200000 0.000000
3.800000 1.200000 0.000000
3.900000 1.200000 0.000000
4.000000 1.200000 0.000000
2.700000 1.300000 0.000000
2.800000 1.300000 0.000000
2.900000 1.300000 0.000000
3.000000 1.300000 0.000000
3.100000 1.300000 0.000000
3.200000 1.300000 0.000000
3.300000 1.300000 0.000000
3.400000 1.300000 0.000000
3.500000 1.300000 0.000000
3.600000 1.300000 0.000000
3.700000 1.300000 0.000000
3.800000 1.300000 0.000000
3.900000 1.300000 0.000000
4.000000 1.300000 0.000000
2.700000 1.400000 0.000000
2.800000 1.400000 0.000000
2.900000 1.400000 0.000000
3.000000 1.400000 0.000000
3.100000 1.400000 0.000000
3.200000 1.400000 0.000000
3.300000 1.400000 0.000000
3.400000 1.400000 0.000000
3.500000 1.400000 0.000000
3.600000 1.400000 0.000000
3.700000 1.400000 0.000000
3.800000 1.400000 0.000000
3.900000 1.400000 0.000000
4.000000 1.400000 0.000000
2.700000 1.500000 0.000000
2.800000 1.500000 0.000000
2.900000 1.500000 0.000000
3.000000 1.500000 0.000000
3.100000 1.500000 0.000000
3.200000 1.500000 0.000000
3.300000 1.500000 0.000000
3.400000 1.500000 0.000000
3.500000 1.500000 0.000000
3.600000 1.500000 0.000000
3.700000 1.500000 0.000000
3.800000 1.500000 0.000000
3.900000 1.500000 0.000000
4.000000 1.500000 0.000000
2.700000 1.600000 0.000000
2.800000 1.600000 0.000000
2.900000 1.600000 0.000000
3.000000 1.600000 0.000000
3.100000 1.600000 0.000000
3.200000 1.600000 0.000000
3.300000 1.600000 0.000000
3.400000 1.600000 0.000000
3.500000 1.600000 0.000000
3.600000 1.600000 0.000000
3.700000 1.600000 0.000000
3.800000 1.600000 0.000000
3.900000 1.600000 0.000000
4.000000 1.600000 0.000000
2.700000 1.700000 0.000000
2.800000 1.700000 0.000000
2.900000 1.700000 0.000000
3.000000 1.700000 0.000000
3.100000 1.700000 0.000000
3.200000 1.700000 0.000000
3.300000 1.700000 0.000000
3.400000 1.700000 0.000000
3.500000 1.700000 0.000000
3.600000 1.700000 0.000000
3.700000 1.700000 0.000000
3.800000 1.700000 0.000000
3.900000 1.700000 0.000000
4.000000 1.700000 0.000000
2.700000 1.800000 0.000000
2.800000 1.800000 0.000000
2.900000 1.800000 0.000000
3.000000 1.800000 0.000000
3.100000 1.800000 0.000000
3.200000 1.800000 0.000000
3.300000 1.800000 0.000000
3.400000 1.800000 0.000000
3.500000 1.800000 0.000000
3.600000 1.800000 0.000000
3.700000 1.800000 0.000000
3.800000 1.800000 0.000000
3.900000 1.800000 0.000000
4.000000 1.800000 0.000000
2.700000 1.900000 0.000000
2.800000 1.900000 0.000000
2.900000 1.900000 0.000000
3.000000 1.900000 0.000000
3.100000 1.900000 0.000000
3.200000 1.900000 0.000000
3.300000 1.900000 0.000000
3.400000 1.900000 0.000000
3.500000 1.900000 0.000000
3.600000 1.900000 0.000000
3.700000 1.900000 0.000000
3.800000 1.900000 0.000000
3.900000 1.900000 0.000000
4.000000 1.900000 0.000000
2.700000 2.000000 0.000000
2.800000 2.000000 0.000000
2.900000 2.000000 0.000000
3.000000 2.000000 0.000000
3.100000 2.000000 0.000000
3.200000 2.000000 0.000000
3.300000 2.000000 0.000000
3.400000 2.000000 0.000000
3.500000 2.000000 0.000000
3.600000 2.000000 0.000000
3.700000 2.000000 0.000000
3.800000 2.000000 0.000000
3.900000 2.000000 0.000000
4.000000 2.000000 0.000000
2.700000 1.000000 0.100000
2.800000 1.000000 0.100000
2.900000 1.000000 0.100000
3.000000 1.000000 0.100000
3.100000 1.000000 0.100000
3.200000 1.000000 0.100000
3.300000 1.000000 0.100000
3.400000 1.000000 0.100000
3.500000 1.000000 0.100000
3.600000 1.000000 0.100000
3.700000 1.000000 0.100000
3.800000 1.000000 0.100000
3.900000 1.000000 0.100000
4.000000 1.000000 0.100000
2.700000 1.100000 0.100000
2.800000 1.100000 0.100000
2.900000 1.100000 0.100000
3.000000 1.100000 0.100000
3.100000 1.100000 0.100000
3.200000 1.100000 0.100000
3.300000 1.100000 0.100000
3.400000 1.100000 0.100000
3.500000 1.100000 0.100000
3.600000 1.100000 0.100000
3.700000 1.100000 0.100000
3.800000 1.100000 0.100000
3.900000 1.100000 0.100000
4.000000 1.100000 0.100000
2.700000 1.200000 0.100000
2.800000 1.200000 0.100000
2.900000 1.200000 0.100000
3.000000 1.200000 0.100000
3.100000 1.200000 0.100000
3.200000 1.200000 0.100000
3.300000 1.200000 0.100000
3.400000 1.200000 0.100000
3.500000 1.200000 0.100000
3.600000 1.200000 0.100000
3.700000 1.200000 0.100000
3.800000 1.200000 0.100000
3.900000 1.200000 0.100000
4.000000 1.200000 0.100000
2.700000 1.300000 0.100000
2.800000 1.300000 0.100000
2.900000 1.300000 0.100000
3.000000 1.300000 0.100000
3.100000 1.300000 0.100000
3.200000 1.300000 0.100000
3.300000 1.300000 0.100000
3.400000 1.300000 0.100000
3.500000 1.300000 0.100000
3.600000 1.300000 0.100000
3.700000 1.300000 0.100000
3.800000 1.300000 0.100000
3.900000 1.300000 0.100000
4.000000 1.300000 0.100000
2.700000 1.400000 0.100000
2.800000 1.400000 0.100000
2.900000 1.400000 0.100000
3.000000 1.400000 0.100000
3.100000 1.400000 0.100000
3.200000 1.400000 0.100000
3.300000 1.400000 0.100000
3.400000 1.400000 0.100000
3.500000 1.400000 0.100000
3.600000 1.400000 0.100000
3.700000 1.400000 0.100000
3.800000 1.400000 0.100000
3.900000 1.400000 0.100000
4.000000 1.400000 0.100000
2.700000 1.500000 0.100000
2.800000 1.500000 0.100000
2.900000 1.500000 0.100000
3.000000 1.500000 0.100000
3.100000 1.500000 0.100000
3.200000 1.500000 0.100000
3.300000 1.500000 0.100000
3.400000 1.500000 0.100000
3.500000 1.500000 0.100000
3.600000 1.500000 0.100000
3.700000 1.500000 0.100000
3.800000 1.500000 0.100000
3.900000 1.500000 0.100000
4.000000 1.500000 0.100000
2.700000 1.600000 0.100000
2.800000 1.600000 0.100000
2.900000 1.600000 0.100000
3.000000 1.600000 0.100000
3.100000 1.600000 0.100000
3.200000 1.600000 0.100000
3.300000 1.600000 0.100000
3.400000 1.600000 0.100000
3.500000 1.600000 0.100000
3.600000 1.600000 0.100000
3.700000 1.600000 0.100000
3.800000 1.600000 0.100000
3.900000 1.600000 0.100000
4.000000 1.600000 0.100000
2.700000 1.700000 0.100000
2.800000 1.700000 0.100000
2.900000 1.700000 0.100000
3.000000 1.700000 0.100000
3.100000 1.700000 0.100000
3.200000 1.700000 0.100000
3.300000 1.700000 0.100000
3.400000 1.700000 0.100000
3.500000 1.700000 0.100000
3.600000 1.700000 0.100000
3.700000 1.700000 0.100000
3.800000 1.700000 0.100000
3.900000 1.700000 0.100000
4.000000 1.700000 0.100000
2.700000 1.800000 0.100000
2.800000 1.800000 0.100000
2.900000 1.800000 0.100000
3.000000 1.800000 0.100000
3.100000 1.800000 0.100000
3.200000 1.800000 0.100000
3.300000 1.800000 0.100000
3.400000 1.800000 0.100000
3.500000 1.800000 0.100000
3.600000 1.800000 0.100000
3.700000 1.800000 0.100000
3.800000 1.800000 0.100000
3.900000 1.800000 0.100000
4.000000 1.800000 0.100000
2.700000 1.900000 0.100000
2.800000 1.900000 0.100000
2.900000 1.900000 0.100000
3.000000 1.900000 0.100000
3.100000 1.900000 0.100000
3.200000 1.900000 0.100000
3.300000 1.900000 0.100000
3.400000 1.900000 0.100000
3.500000 1.900000 0.100000
3.600000 1.900000 0.100000
3.700000 1.900000 0.100000
3.800000 1.900000 0.100000
3.900000 1.900000 0.100000
4.000000 1.900000 0.100000
2.700000 2.000000 0.100000
2.800000 2.000000 0.100000
2.900000 2.000000 0.100000
3.000000 2.000000 0.100000
3.100000 2.000000 0.100000
3.200000 2.000000 0.100000
3.300000 2.000000 0.100000
3.400000 2.000000 0.100000
3.500000 2.000000 0.100000
3.600000 2.000000 0.100000
3.700000 2.000000 0.100000
3.800000 2.000000 0.100000
3.900000 2.000000 0.100000
4.000000 2.000000 0.100000
2.700000 1.000000 0.200000
2.800000 1.000000 0.200000
2.900000 1.000000 0.200000
3.000000 1.000000 0.200000
3.100000 1.000000 0.200000
3.200000 1.000000 0.200000
3.300000 1.000000 0.200000
3.400000 1.000000 0.200000
3.500000 1.000000 0.200000
3.600000 1.000000 0.200000
3.700000 1.000000 0.200000
3.800000 1.000000 0.200000
3.900000 1.000000 0.200000
4.000000 1.000000 0.200000
2.700000 1.100000 0.200000
2.800000 1.100000 0.200000
2.900000 1.100000 0.200000
3.000000 1.100000 0.200000
3.100000 1.100000 0.200000
3.200000 1.100000 0.200000
3.300000 1.100000 0.200000
3.400000 1.100000 0.200000
3.500000 1.100000 0.200000
3.600000 1.100000 0.200000
3.700000 1.100000 0.200000
3.800000 1.100000 0.200000
3.900000 1.100000 0.200000
4.000000 1.100000 0.200000
2.700000 1.200000 0.200000
2.800000 1.200000 0.200000
2.900000 1.200000 0.200000
3.000000 1.200000 0.200000
3.100000 1.200000 0.200000
3.200000 1.200000 0.200000
3.300000 1.200000 0.200000
3.400000 1.200000 0.200000
3.500000 1.200000 0.200000
3.600000 1.200000 0.200000
3.700000 1.200000 0.200000
3.800000 1.200000 0.200000
3.900000 1.200000 0.200000
4.000000 1.200000 0.200000
2.700000 1.300000 0.200000
2.800000 1.300000 0.200000
2.900000 1.300000 0.200000
3.000000 1.300000 0.200000
3.100000 1.300000 0.200000
3.200000 1.300000 0.200000
3.300000 1.300000 0.200000
3.400000 1.300000 0.200000
3.500000 1.300000 0.200000
3.600000 1.300000 0.200000
3.700000 1.300000 0.200000
3.800000 1.300000 0.200000
3.900000 1.300000 0.200000
4.000000 1.300000 0.200000
2.700000 1.400000 0.200000
[...]
CELL_DATA 2600
SCALARS pressure float 1
LOOKUP_TABLE default
8.60214
7.9115
7.22283
6.53508
5.84766
5.16024
4.47267
3.7849
3.0969
2.40872
1.7204
1.03203
0.343772
8.60674
7.91471
7.22503
6.53656
5.84862
5.16086
4.47306
3.78513
3.09703
2.40879
1.72043
1.03203
0.343763
8.61527
7.92069
7.22912
6.5393
5.85043
5.16202
4.47378
3.78556
3.09728
2.40892
1.72049
1.03205
0.343751
8.62649
7.92856
7.23453
6.54294
5.85282
5.16355
4.47473
3.78613
3.09761
2.4091
1.72057
1.03207
0.343741
8.63885
7.93725
7.24051
6.54696
5.85547
5.16524
4.47579
3.78677
3.09798
2.4093
1.72067
1.03211
0.34374
8.65073
7.94562
7.24627
6.55084
5.85802
5.16688
4.4768
3.78738
3.09833
2.40949
1.72078
1.03216
0.343755
8.66074
7.95267
7.25112
6.5541
5.86015
5.16824
4.47765
3.78788
3.09862
2.40965
1.72087
1.03222
0.343791
8.66784
7.95766
7.25455
6.55639
5.86164
5.16918
4.47821
3.78821
3.0988
2.40975
1.72093
1.03228
0.343845
8.67144
7.96015
7.25622
6.55747
5.86232
5.16958
4.47844
3.78833
3.09885
2.40978
1.72095
1.03232
0.343906
8.67109
7.9598
7.25589
6.55718
5.86207
5.16938
4.47828
3.7882
3.09876
2.4097
1.7209
1.0323
0.343936
8.62733
7.93007
7.23633
6.54476
5.85451
5.16504
4.476
3.78718
3.09847
2.40981
1.72117
1.03258
0.344067
8.63121
7.93279
7.23819
6.546
5.85533
5.16556
4.47632
3.78737
3.09858
2.40986
1.72119
1.03258
0.344049
8.63835
7.93781
7.24163
6.54831
5.85684
5.16652
4.47691
3.78772
3.09877
2.40996
1.72123
1.03258
0.344018
8.64765
7.94434
7.24612
6.55132
5.85881
5.16777
4.47768
3.78818
3.09903
2.41009
1.72128
1.03258
0.343982
8.6577
7.95139
7.25095
6.55456
5.86092
5.16911
4.47849
3.78865
3.09928
2.41021
1.72133
1.03258
0.34395
8.66697
7.95788
7.25537
6.5575
5.86281
5.17029
4.4792
3.78905
3.09949
2.41031
1.72136
1.03258
0.34393
8.67405
7.96278
7.25866
6.55964
5.86416
5.1711
4.47966
3.78929
3.0996
2.41034
1.72136
1.03257
0.343927
8.67775
7.96522
7.26021
6.56056
5.86467
5.17134
4.47975
3.78928
3.09955
2.41028
1.72131
1.03254
0.343939
8.67713
7.96453
7.25952
6.55993
5.86411
5.17088
4.47936
3.78897
3.09931
2.4101
1.72118
1.03247
0.34395
8.67137
7.9601
7.25618
6.55745
5.8623
5.16957
4.47843
3.78832
3.09885
2.40977
1.72095
1.03232
0.343905
8.64392
7.943
7.24619
6.55216
5.85998
5.16903
4.47888
3.78924
3.09994
2.41085
1.7219
1.03305
0.344281
8.64728
7.94533
7.24777
6.55319
5.86064
5.16944
4.47912
3.78938
3.10001
2.41087
1.7219
1.03304
0.34425
8.65343
7.94958
7.25064
6.55509
5.86185
5.17019
4.47956
3.78962
3.10013
2.41092
1.7219
1.03301
0.344196
8.66131
7.95502
7.25431
6.55749
5.86339
5.17113
4.48011
3.78992
3.10027
2.41097
1.7219
1.03297
0.344129
8.66957
7.9607
7.25811
6.55997
5.86494
5.17206
4.48064
3.7902
3.10039
2.411
1.72188
1.03292
0.344062
8.6767
7.96554
7.26129
6.56199
5.86617
5.17276
4.48101
3.79035
3.10043
2.41098
1.72183
1.03287
0.344007
8.68125
7.96849
7.26311
6.56304
5.86672
5.173
4.48106
3.7903
3.10033
2.41087
1.72173
1.0328
0.343971
8.68193
7.96862
7.26292
6.56268
5.86629
5.17257
4.48067
3.78996
3.10005
2.41064
1.72156
1.0327
0.343955
8.67768
7.96516
7.26016
6.56052
5.86464
5.17132
4.47973
3.78927
3.09954
2.41027
1.7213
1.03254
0.343936
8.66767
7.95753
7.25444
6.55631
5.86158
5.16913
4.47818
3.78819
3.09878
2.40974
1.72092
1.03227
0.343841
8.65269
7.95066
7.25259
6.55731
5.86402
5.17213
4.48122
3.79099
3.10122
2.41178
1.72256
1.03349
0.344503
8.65571
7.9527
7.25391
6.55815
5.86453
5.17243
4.48138
3.79106
3.10125
2.41178
1.72254
1.03346
0.344459
8.6612
7.95637
7.2563
6.55965
5.86544
5.17295
4.48166
3.79119
3.10128
2.41176
1.7225
1.0334
0.34438
8.66811
7.96096
7.25927
6.56151
5.86655
5.17357
4.48197
3.79131
3.1013
2.41172
1.72243
1.03331
0.34428
8.67507
7.96553
7.26217
6.56328
5.86757
5.17411
4.4822
3.79137
3.10127
2.41164
1.72233
1.03321
0.344176
8.68055
7.96901
7.26426
6.56445
5.86815
5.17433
4.48222
3.79128
3.10113
2.41149
1.72219
1.0331
0.344084
8.68306
7.97031
7.26479
6.56452
5.86796
5.17402
4.48187
3.79094
3.10083
2.41124
1.722
1.03296
0.344015
8.68122
7.96846
7.26308
6.56301
5.86669
5.17298
4.48104
3.79029
3.10032
2.41086
1.72172
1.03279
0.343969
8.67394
7.96268
7.25857
6.55956
5.86409
5.17104
4.47962
3.78925
3.09957
2.41032
1.72134
1.03256
0.343922
8.6605
7.95247
7.25096
6.55397
5.86005
5.16816
4.47758
3.78783
3.09858
2.40962
1.72084
1.03221
0.343782
8.65507
7.954
7.25607
6.56053
5.8668
5.17443
4.48306
3.79242
3.10232
2.4126
1.72316
1.0339
0.344756
8.6579
7.95581
7.25719
6.56119
5.86716
5.1746
4.48312
3.79243
3.10229
2.41256
1.72311
1.03385
0.344698
8.663
7.95904
7.25916
6.56234
5.86779
5.17491
4.48323
3.79242
3.10223
2.41248
1.72302
1.03375
0.344594
8.66929
7.96298
7.26154
6.56369
5.8685
5.17521
4.48331
3.79237
3.10212
2.41235
1.72289
1.03362
0.34446
8.67537
7.96669
7.26367
6.56482
5.869
5.17535
4.48324
3.79221
3.10193
2.41215
1.72271
1.03347
0.344317
8.67966
7.96906
7.26483
6.56524
5.86899
5.17512
4.48292
3.79187
3.10161
2.41187
1.72248
1.03329
0.344187
8.68057
7.969
7.26425
6.56443
5.86813
5.17431
4.4822
3.79126
3.10111
2.41148
1.72219
1.03309
0.344081
8.67669
7.9655
7.26124
6.56193
5.86611
5.17272
4.48097
3.79032
3.1004
2.41095
1.72181
1.03286
0.344001
8.66687
7.95776
7.25526
6.55739
5.86272
5.17021
4.47914
3.78899
3.09945
2.41027
1.72133
1.03256
0.343921
8.65048
7.94539
7.24607
6.55067
5.85787
5.16676
4.47671
3.78731
3.09827
2.40945
1.72074
1.03214
0.343742
8.65288
7.95419
7.2574
6.56229
5.86859
5.17606
4.48445
3.79356
3.10323
2.41331
1.72369
1.03429
0.345034
8.65561
7.95583
7.25833
6.56277
5.86881
5.17612
4.48443
3.7935
3.10315
2.41323
1.72362
1.03422
0.344963
8.6605
7.95872
7.25996
6.56361
5.86917
5.17621
4.48437
3.79338
3.103
2.41308
1.72348
1.03409
0.344833
8.66644
7.96217
7.26182
6.56451
5.8695
5.17622
4.48422
3.79315
3.10276
2.41285
1.72328
1.03391
0.344665
8.67197
7.9652
7.26331
6.56507
5.86954
5.17599
4.48387
3.79278
3.10241
2.41255
1.72302
1.0337
0.344484
8.67542
7.96671
7.26367
6.56482
5.86899
5.17534
4.48323
3.7922
3.10192
2.41214
1.7227
1.03346
0.344314
8.67514
7.96555
7.26216
6.56325
5.86753
5.17407
4.48217
3.79134
3.10124
2.41162
1.72232
1.0332
0.344169
8.6696
7.96068
7.25805
6.5599
5.86487
5.172
4.48058
3.79014
3.10035
2.41097
1.72185
1.03291
0.344053
8.65763
7.95128
7.25083
6.55443
5.8608
5.169
4.47841
3.78858
3.09922
2.41016
1.72129
1.03255
0.343938
8.63861
7.93701
7.24028
6.54676
5.85529
5.1651
4.47567
3.78667
3.0979
2.40924
1.72062
1.03208
0.343722
8.64805
7.95247
7.25735
6.56305
5.86967
5.17718
4.48549
3.79446
3.10397
2.41389
1.72415
1.03464
0.345314
8.65074
7.95398
7.25813
6.56339
5.86976
5.17714
4.48539
3.79434
3.10384
2.41378
1.72405
1.03456
0.345231
8.65555
7.95662
7.25945
6.56394
5.86988
5.17703
4.48517
3.79409
3.10361
2.41357
1.72387
1.03439
0.345078
8.66132
7.95969
7.26089
6.56444
5.86986
5.17676
4.4848
3.7937
3.10325
2.41326
1.7236
1.03417
0.344879
8.66652
7.96221
7.26184
6.56451
5.86949
5.17621
4.4842
3.79314
3.10275
2.41285
1.72327
1.03391
0.344662
8.66942
7.96304
7.26156
6.56369
5.86848
5.17519
4.48328
3.79235
3.1021
2.41233
1.72287
1.03361
0.344453
8.66826
7.96102
7.25927
6.56148
5.86651
5.17353
4.48192
3.79127
3.10126
2.41169
1.72241
1.0333
0.34427
8.66142
7.95504
7.25427
6.55743
5.86331
5.17105
4.48004
3.78986
3.10022
2.41093
1.72186
1.03295
0.344116
8.64765
7.94426
7.246
6.55119
5.85868
5.16766
4.47758
3.78809
3.09895
2.41003
1.72123
1.03254
0.343967
8.62631
7.92834
7.2343
6.54273
5.85263
5.16338
4.47459
3.78602
3.09752
2.40902
1.72051
1.03203
0.343719
8.64245
7.95003
7.25664
6.56324
5.87027
5.17793
4.48623
3.79512
3.10453
2.41436
1.72452
1.03494
0.345566
8.64514
7.95144
7.25729
6.56345
5.87026
5.1778
4.48606
3.79495
3.10437
2.41422
1.7244
1.03484
0.345473
8.64993
7.95389
7.25838
6.56377
5.87017
5.17753
4.48572
3.79461
3.10406
2.41395
1.72418
1.03465
0.3453
8.65564
7.95667
7.25948
6.56395
5.86988
5.17703
4.48517
3.79408
3.1036
2.41356
1.72386
1.03439
0.345074
8.66067
7.95881
7.26
6.56362
5.86917
5.1762
4.48435
3.79336
3.10298
2.41306
1.72346
1.03408
0.344826
8.66322
7.95915
7.25921
6.56235
5.86778
5.17488
4.4832
3.79239
3.1022
2.41245
1.723
1.03374
0.344583
8.66144
7.95647
7.25633
6.55964
5.8654
5.1729
4.4816
3.79113
3.10124
2.41172
1.72247
1.03337
0.344367
8.65362
7.94964
7.25062
6.55503
5.86178
5.1701
4.47948
3.78955
3.10006
2.41087
1.72186
1.03298
0.34418
8.63843
7.93777
7.24153
6.54819
5.85671
5.16639
4.4768
3.78762
3.09869
2.40989
1.72117
1.03254
0.343999
8.61515
7.92049
7.2289
6.53909
5.85023
5.16183
4.47362
3.78543
3.09717
2.40883
1.72042
1.03199
0.343725
8.63774
7.94784
7.25586
6.5632
5.87059
5.17839
4.48671
3.79557
3.10492
2.41468
1.72478
1.03516
0.345756
8.64044
7.94918
7.25641
6.56332
5.8705
5.1782
4.48649
3.79536
3.10473
2.41452
1.72465
1.03504
0.345655
8.64524
7.9515
7.25732
6.56347
5.87026
5.1778
4.48606
3.79494
3.10436
2.41421
1.72439
1.03483
0.345469
8.65093
7.95409
7.25818
6.56341
5.86976
5.17714
4.48538
3.79432
3.10383
2.41377
1.72404
1.03455
0.345223
8.65588
7.95598
7.2584
6.5628
5.86881
5.17611
4.48441
3.79348
3.10313
2.41321
1.7236
1.0342
0.344952
8.65822
7.95598
7.25726
6.56121
5.86715
5.17458
4.48309
3.79239
3.10225
2.41253
1.72308
1.03383
0.344685
8.65605
7.95286
7.25397
6.55814
5.86449
5.17237
4.48132
3.791
3.10119
2.41173
1.7225
1.03343
0.344443
8.64757
7.94544
7.24777
6.55315
5.86057
5.16935
4.47903
3.78929
3.09993
2.41081
1.72185
1.033
0.344231
8.63137
7.9328
7.23811
6.54589
5.85519
5.16542
4.47619
3.78726
3.09848
2.40978
1.72113
1.03253
0.344027
8.6067
7.91456
7.22483
6.53634
5.84842
5.16067
4.47289
3.78498
3.09691
2.40869
1.72035
1.03197
0.343734
8.63512
7.9466
7.25539
6.56314
5.87074
5.17862
4.48696
3.7958
3.10512
2.41484
1.72492
1.03527
0.345857
8.63782
7.9479
7.2559
6.56322
5.8706
5.17839
4.48671
3.79557
3.10491
2.41467
1.72477
1.03515
0.345752
8.64263
7.95015
7.25671
6.56327
5.87029
5.17793
4.48622
3.79511
3.10452
2.41434
1.72451
1.03493
0.345559
8.64831
7.95264
7.25745
6.56309
5.86968
5.17718
4.48547
3.79444
3.10394
2.41388
1.72413
1.03463
0.345303
8.65323
7.9544
7.25751
6.56234
5.8686
5.17605
4.48443
3.79353
3.1032
2.41328
1.72367
1.03427
0.345019
8.65548
7.95424
7.25619
6.56058
5.8668
5.1744
4.48302
3.79238
3.10228
2.41256
1.72313
1.03388
0.344739
8.65311
7.95089
7.25268
6.55733
5.864
5.17208
4.48116
3.79093
3.10117
2.41173
1.72252
1.03346
0.344484
8.6443
7.94317
7.24624
6.55213
5.85991
5.16894
4.47879
3.78916
3.09986
2.41078
1.72185
1.03302
0.344259
8.62758
7.93014
7.23628
6.54465
5.85438
5.16491
4.47587
3.78707
3.09837
2.40973
1.72111
1.03253
0.344042
8.60217
7.91139
7.22265
6.53488
5.84746
5.16005
4.4725
3.78475
3.09678
2.40862
1.72031
1.03196
0.343739
8.63519
7.94665
7.25542
6.56316
5.87075
5.17863
4.48697
3.79581
3.10512
2.41484
1.72491
1.03527
0.345854
8.63789
7.94795
7.25593
6.56324
5.87062
5.1784
4.48672
3.79557
3.10491
2.41467
1.72477
1.03515
0.345749
8.64269
7.9502
7.25675
6.5633
5.8703
5.17794
4.48623
3.79512
3.10452
2.41434
1.72451
1.03493
0.345556
8.64837
7.95269
7.25748
6.56312
5.8697
5.17719
4.48548
3.79444
3.10395
2.41388
1.72413
1.03463
0.3453
8.65329
7.95445
7.25755
6.56236
5.86862
5.17606
4.48443
3.79354
3.1032
2.41328
1.72367
1.03427
0.345017
8.65554
7.95429
7.25622
6.5606
5.86682
5.17441
4.48302
3.79238
3.10228
2.41257
1.72313
1.03387
0.344737
8.65317
7.95094
7.25272
6.55736
5.86401
5.1721
4.48117
3.79093
3.10117
2.41173
1.72252
1.03346
0.344482
8.64436
7.94322
7.24627
6.55216
5.85993
5.16896
4.4788
3.78916
3.09986
2.41078
1.72185
1.03301
0.344257
8.62764
7.93018
7.23631
6.54468
5.8544
5.16492
4.47588
3.78707
3.09838
2.40973
1.72111
1.03253
0.344041
8.60223
7.91144
7.22269
6.5349
5.84748
5.16006
4.47251
3.78475
3.09678
2.40862
1.72031
1.03196
0.343738
8.63794
7.94798
7.25596
6.56327
5.87064
5.17842
4.48673
3.79558
3.10492
2.41468
1.72478
1.03515
0.345747
8.64063
7.94932
7.25652
6.5634
5.87055
5.17823
4.48651
3.79537
3.10473
2.41452
1.72464
1.03504
0.345646
8.64542
7.95163
7.25743
6.56354
5.87031
5.17783
4.48608
3.79496
3.10437
2.41421
1.72439
1.03483
0.34546
8.65111
7.95423
7.25828
6.56348
5.86982
5.17717
4.4854
3.79433
3.10383
2.41377
1.72404
1.03454
0.345215
8.65606
7.95611
7.25851
6.56288
5.86887
5.17615
4.48443
3.79349
3.10313
2.41321
1.7236
1.0342
0.344945
8.6584
7.95612
7.25737
6.56129
5.86721
5.17461
4.48311
3.7924
3.10226
2.41253
1.72308
1.03382
0.344678
8.65623
7.953
7.25408
6.55822
5.86455
5.17241
4.48135
3.79102
3.1012
2.41173
1.7225
1.03343
0.344437
8.64775
7.94558
7.24788
6.55323
5.86063
5.16939
4.47906
3.78931
3.09994
2.41082
1.72185
1.033
0.344227
8.63156
7.93295
7.23822
6.54597
5.85525
5.16547
4.47622
3.78728
3.09849
2.40979
1.72113
1.03253
0.344023
8.60689
7.91471
7.22494
6.53642
5.84848
5.16071
4.47292
3.785
3.09692
2.40869
1.72035
1.03197
0.34373
8.64277
7.95026
7.25681
6.56336
5.87035
5.17798
4.48626
3.79514
3.10454
2.41435
1.72451
1.03493
0.345552
8.64545
7.95166
7.25746
6.56357
5.87034
5.17785
4.48609
3.79497
3.10438
2.41421
1.72439
1.03483
0.345458
8.65023
7.95411
7.25854
6.56389
5.87025
5.17758
4.48575
3.79462
3.10406
2.41395
1.72417
1.03464
0.345286
8.65593
7.95689
7.25964
6.56406
5.86996
5.17708
4.4852
3.7941
3.10361
2.41356
1.72385
1.03438
0.345062
8.66096
7.95903
7.26016
6.56374
5.86925
5.17625
4.48439
3.79338
3.10299
2.41306
1.72346
1.03407
0.344814
8.66351
7.95938
7.25938
6.56247
5.86786
5.17494
4.48324
3.79241
3.10221
2.41245
1.723
1.03373
0.344573
8.66173
7.9567
7.2565
6.55976
5.86549
5.17296
4.48164
3.79116
3.10125
2.41173
1.72246
1.03337
0.344358
8.65392
7.94987
7.25079
6.55515
5.86187
5.17017
4.47952
3.78957
3.10008
2.41087
1.72186
1.03298
0.344173
8.63873
7.938
7.2417
6.54832
5.8568
5.16646
4.47684
3.78765
3.0987
2.4099
1.72117
1.03253
0.343993
8.61546
7.92073
7.22908
6.53922
5.85032
5.1619
4.47366
3.78545
3.09718
2.40884
1.72042
1.03199
0.343719
8.64846
7.95278
7.25757
6.5632
5.86977
5.17725
4.48553
3.79448
3.10397
2.41389
1.72414
1.03463
0.345295
8.65115
7.95428
7.25834
6.56354
5.86986
5.17721
4.48543
3.79435
3.10385
2.41378
1.72404
1.03454
0.345212
8.65594
7.95692
7.25967
6.56409
5.86998
5.1771
4.48522
3.79411
3.10361
2.41357
1.72386
1.03438
0.34506
8.6617
7.95998
7.26111
6.56459
5.86997
5.17684
4.48485
3.79373
3.10326
2.41326
1.72359
1.03416
0.344862
8.66691
7.9625
7.26206
6.56467
5.8696
5.17628
4.48425
3.79317
3.10276
2.41285
1.72326
1.0339
0.344646
8.66981
7.96334
7.26178
6.56385
5.86859
5.17527
4.48333
3.79238
3.10212
2.41233
1.72287
1.0336
0.344439
8.66864
7.96132
7.2595
6.56165
5.86663
5.17361
4.48198
3.7913
3.10128
2.4117
1.7224
1.03329
0.344258
8.66181
7.95534
7.25449
6.5576
5.86343
5.17113
4.48009
3.78989
3.10023
2.41093
1.72186
1.03294
0.344107
8.64805
7.94457
7.24623
6.55136
5.8588
5.16774
4.47763
3.78812
3.09897
2.41003
1.72123
1.03254
0.343959
8.62672
7.92865
7.23454
6.5429
5.85275
5.16346
4.47464
3.78605
3.09753
2.40903
1.72051
1.03202
0.343711
8.65337
7.95455
7.25765
6.56246
5.86871
5.17613
4.48449
3.79358
3.10323
2.4133
1.72367
1.03427
0.34501
8.65609
7.95618
7.25858
6.56295
5.86893
5.1762
4.48447
3.79352
3.10315
2.41322
1.7236
1.0342
0.34494
8.66097
7.95907
7.26021
6.56378
5.86929
5.17629
4.48442
3.7934
3.10301
2.41307
1.72346
1.03407
0.344811
8.6669
7.96251
7.26207
6.56469
5.86962
5.17629
4.48426
3.79317
3.10277
2.41285
1.72326
1.0339
0.344645
8.67243
7.96555
7.26356
6.56525
5.86966
5.17607
4.48392
3.79281
3.10242
2.41254
1.72301
1.03368
0.344465
8.67588
7.96706
7.26393
6.565
5.86912
5.17543
4.48328
3.79223
3.10193
2.41214
1.72269
1.03345
0.344297
8.6756
7.9659
7.26242
6.56344
5.86767
5.17416
4.48223
3.79138
3.10126
2.41162
1.72231
1.03319
0.344155
8.67007
7.96104
7.25832
6.5601
5.86501
5.17209
4.48065
3.79018
3.10036
2.41097
1.72185
1.0329
0.344041
8.65811
7.95165
7.2511
6.55463
5.86094
5.1691
4.47847
3.78861
3.09924
2.41017
1.72129
1.03254
0.343928
8.6391
7.93738
7.24056
6.54696
5.85543
5.16519
4.47573
3.78671
3.09792
2.40924
1.72062
1.03207
0.343713
8.65561
7.95439
7.25634
6.56072
5.86692
5.1745
4.48309
3.79243
3.10231
2.41258
1.72313
1.03387
0.344729
8.65842
7.95619
7.25745
6.56137
5.86728
5.17467
4.48316
3.79243
3.10228
2.41254
1.72309
1.03382
0.344672
8.66351
7.95941
7.25943
6.56253
5.86791
5.17498
4.48327
3.79244
3.10223
2.41246
1.723
1.03373
0.344569
8.66979
7.96336
7.26181
6.56388
5.86862
5.17529
4.48335
3.79239
3.10212
2.41233
1.72287
1.0336
0.344436
8.67587
7.96706
7.26395
6.56502
5.86913
5.17544
4.48329
3.79224
3.10193
2.41214
1.72269
1.03345
0.344296
8.68016
7.96944
7.26511
6.56544
5.86913
5.17521
4.48297
3.7919
3.10162
2.41187
1.72247
1.03327
0.344168
8.68109
7.96939
7.26454
6.56464
5.86828
5.1744
4.48226
3.79129
3.10112
2.41148
1.72218
1.03308
0.344065
8.67721
7.9659
7.26153
6.56214
5.86626
5.17282
4.48103
3.79035
3.10041
2.41095
1.7218
1.03285
0.343988
8.6674
7.95816
7.25556
6.55761
5.86287
5.17031
4.4792
3.78903
3.09946
2.41027
1.72133
1.03255
0.34391
8.65101
7.94579
7.24637
6.55089
5.85802
5.16686
4.47677
3.78734
3.09828
2.40945
1.72073
1.03213
0.343731
8.65324
7.95106
7.25285
6.55748
5.86413
5.17219
4.48124
3.79098
3.1012
2.41175
1.72253
1.03346
0.344474
8.65625
7.95308
7.25417
6.55832
5.86464
5.17248
4.4814
3.79106
3.10122
2.41175
1.72251
1.03342
0.34443
8.66172
7.95675
7.25656
6.55983
5.86556
5.17301
4.48168
3.79118
3.10126
2.41173
1.72247
1.03336
0.344352
8.66863
7.96134
7.25954
6.56169
5.86667
5.17364
4.482
3.79132
3.10129
2.4117
1.7224
1.03328
0.344254
8.67559
7.96592
7.26245
6.56347
5.86769
5.17418
4.48224
3.79138
3.10126
2.41162
1.72231
1.03319
0.344152
8.68108
7.9694
7.26455
6.56465
5.86829
5.17441
4.48226
3.7913
3.10112
2.41148
1.72217
1.03307
0.344063
8.68359
7.97071
7.26509
6.56472
5.86811
5.17411
4.48193
3.79097
3.10083
2.41123
1.72198
1.03294
0.343998
8.68177
7.96887
7.26338
6.56323
5.86684
5.17307
4.48109
3.79031
3.10033
2.41085
1.72171
1.03278
0.343954
8.6745
7.9631
7.25888
6.55978
5.86425
5.17114
4.47968
3.78928
3.09958
2.41031
1.72133
1.03255
0.343909
8.66106
7.95289
7.25127
6.55419
5.8602
5.16826
4.47764
3.78786
3.09859
2.40962
1.72083
1.03219
0.34377
8.64445
7.94336
7.24643
6.5523
5.86006
5.16905
4.47887
3.78921
3.09989
2.4108
1.72185
1.03301
0.344248
8.64779
7.94568
7.248
6.55334
5.86072
5.16947
4.47911
3.78935
3.09996
2.41082
1.72185
1.033
0.344218
8.65393
7.94993
7.25087
6.55523
5.86194
5.17022
4.47956
3.7896
3.10009
2.41088
1.72186
1.03297
0.344166
8.66181
7.95538
7.25455
6.55765
5.86348
5.17117
4.48012
3.7899
3.10024
2.41093
1.72186
1.03293
0.344101
8.67007
7.96107
7.25836
6.56013
5.86504
5.17212
4.48066
3.79019
3.10037
2.41097
1.72184
1.03289
0.344036
8.67721
7.96592
7.26156
6.56217
5.86628
5.17283
4.48103
3.79035
3.10041
2.41095
1.7218
1.03284
0.343984
8.68178
7.96888
7.26339
6.56324
5.86685
5.17308
4.4811
3.79031
3.10032
2.41085
1.72171
1.03277
0.343952
8.68247
7.96903
7.26321
6.56289
5.86643
5.17266
4.48071
3.78998
3.10005
2.41063
1.72154
1.03268
0.343939
8.67824
7.96558
7.26047
6.56074
5.86478
5.17141
4.47978
3.78929
3.09954
2.41026
1.72128
1.03252
0.343923
8.66824
7.95795
7.25475
6.55652
5.86172
5.16922
4.47823
3.7882
3.09878
2.40972
1.7209
1.03225
0.343827
8.62779
7.93037
7.2365
6.54484
5.85453
5.16502
4.47595
3.78712
3.0984
2.40973
1.7211
1.03252
0.344029
8.63165
7.93308
7.23836
6.54609
5.85535
5.16554
4.47627
3.78731
3.09851
2.40979
1.72112
1.03252
0.344012
8.63879
7.9381
7.24181
6.54841
5.85687
5.16651
4.47687
3.78767
3.09871
2.40989
1.72116
1.03252
0.343983
8.64809
7.94464
7.24631
6.55143
5.85885
5.16778
4.47765
3.78813
3.09897
2.41002
1.72122
1.03252
0.34395
8.65815
7.95171
7.25116
6.55468
5.86098
5.16912
4.47848
3.78861
3.09923
2.41016
1.72127
1.03253
0.343921
8.66744
7.95821
7.2556
6.55764
5.86289
5.17032
4.4792
3.78903
3.09946
2.41026
1.72132
1.03254
0.343904
8.67454
7.96313
7.25891
6.5598
5.86426
5.17115
4.47967
3.78928
3.09957
2.41031
1.72132
1.03254
0.343905
8.67826
7.9656
7.26048
6.56075
5.86478
5.17141
4.47977
3.78928
3.09953
2.41025
1.72128
1.03252
0.343921
8.67767
7.96492
7.25981
6.56012
5.86424
5.17095
4.4794
3.78898
3.0993
2.41008
1.72115
1.03245
0.343936
8.67191
7.9605
7.25646
6.55764
5.86243
5.16964
4.47847
3.78833
3.09884
2.40975
1.72092
1.03229
0.343891
8.60249
7.91169
7.22291
6.53509
5.84761
5.16016
4.47257
3.78478
3.09679
2.40861
1.72029
1.03194
0.34372
8.60708
7.91491
7.22512
6.53657
5.84858
5.16078
4.47296
3.78502
3.09692
2.40868
1.72033
1.03194
0.343712
8.61561
7.92089
7.22922
6.53933
5.8504
5.16195
4.47369
3.78546