# vtk DataFile Version 2.0
I need something to put here
ASCII

DATASET STRUCTURED_GRID
DIMENSIONS 15 11 21
POINTS 3465 float
0.000000 1.000000 0.000000
0.100000 1.000000 0.000000
0.200000 1.000000 0.000000
0.300000 1.000000 0.000000
0.400000 1.000000 0.000000
0.500000 1.000000 0.000000
0.600000 1.000000 0.000000
0.700000 1.000000 0.000000
0.800000 1.000000 0.000000
0.900000 1.000000 0.000000
1.000000 1.000000 0.000000
1.100000 1.000000 0.000000
1.200000 1.000000 0.000000
1.300000 1.000000 0.000000
1.400000 1.000000 0.000000
0.000000 1.100000 0.000000
0.100000 1.100000 0.000000
0.200000 1.100000 0.000000
0.300000 1.100000 0.000000
0.400000 1.100000 0.000000
0.500000 1.100000 0.000000
0.600000 1.100000 0.000000
0.700000 1.100000 0.000000
0.800000 1.100000 0.000000
0.900000 1.100000 0.000000
1.000000 1.100000 0.000000
1.100000 1.100000 0.000000
1.200000 1.100000 0.000000
1.300000 1.100000 0.000000
1.400000 1.100000 0.000000
0.000000 1.200000 0.000000
0.100000 1.200000 0.000000
0.200000 1.200000 0.000000
0.300000 1.200000 0.000000
0.400000 1.200000 0.000000
0.500000 1.200000 0.000000
0.600000 1.200000 0.000000
0.700000 1.200000 0.000000
0.800000 1.200000 0.000000
0.900000 1.200000 0.000000
1.000000 1.200000 0.000000
1.100000 1.200000 0.000000
1.200000 1.200000 0.000000
1.300000 1.200000 0.000000
1.400000 1.200000 0.000000
0.000000 1.300000 0.000000
0.100000 1.300000 0.000000
0.200000 1.300000 0.000000
0.300000 1.300000 0.000000
0.400000 1.300000 0.000000
0.500000 1.300000 0.000000
0.600000 1.300000 0.000000
0.700000 1.300000 0.000000
0.800000 1.300000 0.000000
0.900000 1.300000 0.000000
1.000000 1.300000 0.000000
1.100000 1.300000 0.000000
1.200000 1.300000 0.000000
1.300000 1.300000 0.000000
1.400000 1.300000 0.000000
0.000000 1.400000 0.000000
0.100000 1.400000 0.000000
0.200000 1.400000 0.000000
0.300000 1.400000 0.000000
0.400000 1.400000 0.000000
0.500000 1.400000 0.000000
0.600000 1.400000 0.000000
0.700000 1.400000 0.000000
0.800000 1.400000 0.000000
0.900000 1.400000 0.000000
1.000000 1.400000 0.000000
1.100000 1.400000 0.000000
1.200000 1.400000 0.000000
1.300000 1.400000 0.000000
1.400000 1.400000 0.000000
0.000000 1.500000 0.000000
0.100000 1.500000 0.000000
0.200000 1.500000 0.000000
0.300000 1.500000 0.000000
0.400000 1.500000 0.000000
0.500000 1.500000 0.000000
0.600000 1.500000 0.000000
0.700000 1.500000 0.000000
0.800000 1.500000 0.000000
0.900000 1.500000 0.000000
1.000000 1.500000 0.000000
1.100000 1.500000 0.000000
1.200000 1.500000 0.000000
1.300000 1.500000 0.000000
1.400000 1.500000 0.000000
0.000000 1.600000 0.000000
0.100000 1.600000 0.000000
0.200000 1.600000 0.000000
0.300000 1.600000 0.000000
0.400000 1.600000 0.000000
0.500000 1.600000 0.000000
0.600000 1.600000 0.000000
0.700000 1.600000 0.000000
0.800000 1.600000 0.000000
0.900000 1.600000 0.000000
1.000000 1.600000 0.000000
1.100000 1.600000 0.000000
1.200000 1.600000 0.000000
1.300000 1.600000 0.000000
1.400000 1.600000 0.000000
0.000000 1.700000 0.000000
0.100000 1.700000 0.000000
0.200000 1.700000 0.000000
0.300000 1.700000 0.000000
0.400000 1.700000 0.000000
0.500000 1.700000 0.000000
0.600000 1.700000 0.000000
0.700000 1.700000 0.000000
0.800000 1.700000 0.000000
0.900000 1.700000 0.000000
1.000000 1.700000 0.000000
1.100000 1.700000 0.000000
1.200000 1.700000 0.000000
1.300000 1.700000 0.000000
1.400000 1.700000 0.000000
0.000000 1.800000 0.000000
0.100000 1.800000 0.000000
0.200000 1.800000 0.000000
0.300000 1.800000 0.000000
0.400000 1.800000 0.000000
0.500000 1.800000 0.000000
0.600000 1.800000 0.000000
0.700000 1.800000 0.000000
0.800000 1.800000 0.000000
0.900000 1.800000 0.000000
1.000000 1.800000 0.000000
1.100000 1.800000 0.000000
1.200000 1.800000 0.000000
1.300000 1.800000 0.000000
1.400000 1.800000 0.000000
0.000000 1.900000 0.000000
0.100000 1.900000 0.000000
0.200000 1.900000 0.000000
0.300000 1.900000 0.000000
0.400000 1.900000 0.000000
0.500000 1.900000 0.000000
0.600000 1.900000 0.000000
0.700000 1.900000 0.000000
0.800000 1.900000 0.000000
0.900000 1.900000 0.000000
1.000000 1.900000 0.000000
1.100000 1.900000 0.000000
1.200000 1.900000 0.000000
1.300000 1.900000 0.000000
1.400000 1.900000 0.000000
0.000000 2.000000 0.000000
0.100000 2.000000 0.000000
0.200000 2.000000 0.000000
0.300000 2.000000 0.000000
0.400000 2.000000 0.000000
0.500000 2.000000 0.000000
0.600000 2.000000 0.000000
0.700000 2.000000 0.000000
0.800000 2.000000 0.000000
0.900000 2.000000 0.000000
1.000000 2.000000 0.000000
1.100000 2.000000 0.000000
1.200000 2.000000 0.000000
1.300000 2.000000 0.000000
1.400000 2.000000 0.000000
0.000000 1.000000 0.100000
0.100000 1.000000 0.100000
0.200000 1.000000 0.100000
0.300000 1.000000 0.100000
0.400000 1.000000 0.100000
0.500000 1.000000 0.100000
0.600000 1.000000 0.100000
0.700000 1.000000 0.100000
0.800000 1.000000 0.100000
0.900000 1.000000 0.100000
1.000000 1.000000 0.100000
1.100000 1.000000 0.100000
1.200000 1.000000 0.100000
1.300000 1.000000 0.100000
1.400000 1.000000 0.100000
0.000000 1.100000 0.100000
0.100000 1.100000 0.100000
0.200000 1.100000 0.100000
0.300000 1.100000 0.100000
0.400000 1.100000 0.100000
0.500000 1.100000 0.100000
0.600000 1.100000 0.100000
0.700000 1.100000 0.100000
0.800000 1.100000 0.100000
0.900000 1.100000 0.100000
1.000000 1.100000 0.100000
1.100000 1.100000 0.100000
1.200000 1.100000 0.100000
1.300000 1.100000 0.100000
1.400000 1.100000 0.100000
0.000000 1.200000 0.100000
0.100000 1.200000 0.100000
0.200000 1.200000 0.100000
0.300000 1.200000 0.100000
0.400000 1.200000 0.100000
0.500000 1.200000 0.100000
0.600000 1.200000 0.100000
0.700000 1.200000 0.100000
0.800000 1.200000 0.100000
0.900000 1.200000 0.100000
1.000000 1.200000 0.100000
1.100000 1.200000 0.100000
1.200000 1.200000 0.100000
1.300000 1.200000 0.100000
1.400000 1.200000 0.100000
0.000000 1.300000 0.100000
0.100000 1.300000 0.100000
0.200000 1.300000 0.100000
0.300000 1.300000 0.100000
0.400000 1.300000 0.100000
0.500000 1.300000 0.100000
0.600000 1.300000 0.100000
0.700000 1.300000 0.100000
0.800000 1.300000 0.100000
0.900000 1.300000 0.100000
1.000000 1.300000 0.100000
1.100000 1.300000 0.100000
1.200000 1.300000 0.100000
1.300000 1.300000 0.100000
1.400000 1.300000 0.100000
0.000000 1.400000 0.100000
0.100000 1.400000 0.100000
0.200000 1.400000 0.100000
0.300000 1.400000 0.100000
0.400000 1.400000 0.100000
0.500000 1.400000 0.100000
0.600000 1.400000 0.100000
0.700000 1.400000 0.100000
0.800000 1.400000 0.100000
0.900000 1.400000 0.100000
1.000000 1.400000 0.100000
1.100000 1.400000 0.100000
1.200000 1.400000 0.100000
1.300000 1.400000 0.100000
1.400000 1.400000 0.100000
0.000000 1.500000 0.100000
0.100000 1.500000 0.100000
0.200000 1.500000 0.100000
0.300000 1.500000 0.100000
0.400000 1.500000 0.100000
0.500000 1.500000 0.100000
0.600000 1.500000 0.100000
0.700000 1.500000 0.100000
0.800000 1.500000 0.100000
0.900000 1.500000 0.100000
1.000000 1.500000 0.100000
1.100000 1.500000 0.100000
1.200000 1.500000 0.100000
1.300000 1.500000 0.100000
1.400000 1.500000 0.100000
0.000000 1.600000 0.100000
0.100000 1.600000 0.100000
0.200000 1.600000 0.100000
0.300000 1.600000 0.100000
0.400000 1.600000 0.100000
0.500000 1.600000 0.100000
0.600000 1.600000 0.100000
0.700000 1.600000 0.100000
0.800000 1.600000 0.100000
0.900000 1.600000 0.100000
1.000000 1.600000 0.100000
1.100000 1.600000 0.100000
1.200000 1.600000 0.100000
1.300000 1.600000 0.100000
1.400000 1.600000 0.100000
0.000000 1.700000 0.100000
0.100000 1.700000 0.100000
0.200000 1.700000 0.100000
0.300000 1.700000 0.100000
0.400000 1.700000 0.100000
0.500000 1.700000 0.100000
0.600000 1.700000 0.100000
0.700000 1.700000 0.100000
0.800000 1.700000 0.100000
0.900000 1.700000 0.100000
1.000000 1.700000 0.100000
1.100000 1.700000 0.100000
1.200000 1.700000 0.100000
1.300000 1.700000 0.100000
1.400000 1.700000 0.100000
0.000000 1.800000 0.100000
0.100000 1.800000 0.100000
0.200000 1.800000 0.100000
0.300000 1.800000 0.100000
0.400000 1.800000 0.100000
0.500000 1.800000 0.100000
0.600000 1.800000 0.100000
0.700000 1.800000 0.100000
0.800000 1.800000 0.100000
0.900000 1.800000 0.100000
1.000000 1.800000 0.100000
1.100000 1.800000 0.100000
1.200000 1.800000 0.100000
1.300000 1.800000 0.100000
1.400000 1.800000 0.100000
0.000000 1.900000 0.100000
0.100000 1.900000 0.100000
0.200000 1.900000 0.100000
0.300000 1.900000 0.100000
0.400000 1.900000 0.100000
0.500000 1.900000 0.100000
0.600000 1.900000 0.100000
0.700000 1.900000 0.100000
0.800000 1.900000 0.100000
0.900000 1.900000 0.100000
1.000000 1.900000 0.100000
1.100000 1.900000 0.100000
1.200000 1.900000 0.100000
1.300000 1.900000 0.100000
1.400000 1.900000 0.100000
0.000000 2.000000 0.100000
0.100000 2.000000 0.100000
0.200000 2.000000 0.100000
0.300000 2.000000 0.100000
0.400000 2.000000 0.100000
0.500000 2.000000 0.100000
0.600000 2.000000 0.100000
0.700000 2.000000 0.100000
0.800000 2.000000 0.100000
0.900000 2.000000 0.100000
1.000000 2.000000 0.100000
1.100000 2.000000 0.100000
1.200000 2.000000 0.100000
1.300000 2.000000 0.100000
1.400000 2.000000 0.100000
0.000000 1.000000 0.200000
0.100000 1.000000 0.200000
0.200000 1.000000 0.200000
0.300000 1.000000 0.200000
0.400000 1.000000 0.200000
0.500000 1.000000 0.200000
0.600000 1.000000 0.200000
0.700000 1.000000 0.200000
0.800000 1.000000 0.200000
0.900000 1.000000 0.200000
1.000000 1.000000 0.200000
1.100000 1.000000 0.200000
1.200000 1.000000 0.200000
1.300000 1.000000 0.200000
1.400000 1.000000 0.200000
0.000000 1.100000 0.200000
0.100000 1.100000 0.200000
0.200000 1.100000 0.200000
0.300000 1.100000 0.200000
0.400000 1.100000 0.200000
0.500000 1.100000 0.200000
0.600000 1.100000 0.200000
0.700000 1.100000 0.200000
0.800000 1.100000 0.200000
0.900000 1.100000 0.200000
1.000000 1.100000 0.200000
1.100000 1.100000 0.200000
1.200000 1.100000 0.200000
1.300000 1.100000 0.200000
1.400000 1.100000 0.200000
0.000000 1.200000 0.200000
0.100000 1.200000 0.200000
0.200000 1.200000 0.200000
0.300000 1.200000 0.200000
0.400000 1.200000 0.200000
[...]
CELL_DATA 2800
SCALARS pressure float 1
LOOKUP_TABLE default
60.5742
43.7838
36.2175
32.5086
30.4423
29.0994
28.0839
27.211
26.3826
25.5389
24.6398
23.6593
22.5879
21.4349
59.9534
43.5026
36.0886
32.4491
30.4141
29.0844
28.0729
27.199
26.3677
25.5209
24.6204
23.6412
22.5748
21.43
58.7209
42.9485
35.8377
32.3355
30.3624
29.0585
28.0544
27.1787
26.3416
25.4887
24.585
23.608
22.5503
21.4202
56.8971
42.1404
35.4804
32.1805
30.2972
29.0299
28.0361
27.1575
26.3119
25.4503
24.5414
23.5663
22.5189
21.407
54.517
41.1097
35.0421
32.0034
30.2333
29.0104
28.0279
27.1447
26.288
25.415
24.4989
23.5243
22.4865
21.3927
51.6376
39.9066
34.5614
31.832
30.19
29.0137
28.0403
27.1493
26.2784
25.3915
24.4659
23.4893
22.4586
21.3802
48.3555
38.6119
34.0956
31.7033
30.19
29.0535
28.082
27.1776
26.2887
25.385
24.4476
23.4663
22.4388
21.3712
44.8497
37.3604
33.7279
31.6623
30.2547
29.1384
28.1554
27.2294
26.3183
25.3956
24.4446
23.4562
22.4284
21.3665
41.4906
36.3807
33.5659
31.7469
30.3889
29.2597
28.2482
27.2935
26.358
25.4165
24.4524
23.4562
22.4256
21.3651
39.1412
36.0214
33.6829
31.9283
30.5387
29.3668
28.3204
27.3405
26.3875
25.4341
24.4621
23.4609
22.4275
21.3657
46.955
41.1433
36.3698
33.1703
31.0403
29.532
28.3642
27.3713
26.4535
25.5468
24.6095
23.6142
22.5498
21.4216
46.6133
40.9184
36.2394
33.0983
31.001
29.5095
28.349
27.3581
26.4396
25.5314
24.5934
23.5994
22.5389
21.4172
45.9381
40.4766
35.9855
32.9601
30.9272
29.4684
28.3221
27.3348
26.4147
25.5036
24.5639
23.572
22.5185
21.4083
44.9482
39.8361
35.6237
32.7684
30.8288
29.4168
28.2904
27.3081
26.3856
25.47
24.5275
23.5377
22.4924
21.3963
43.6756
39.0273
35.1793
32.5425
30.7205
29.366
28.2632
27.2862
26.3601
25.4386
24.492
23.5032
22.4657
21.3837
42.1716
38.0972
34.6893
32.3093
30.6209
29.329
28.2501
27.277
26.3458
25.4167
24.4645
23.4749
22.443
21.3729
40.5205
37.1188
34.2068
32.1036
30.5513
29.3184
28.2589
27.2861
26.3473
25.4089
24.4494
23.457
22.4278
21.3657
38.8669
36.2055
33.8042
31.9653
30.531
29.342
28.2921
27.3142
26.365
25.416
24.4483
23.4512
22.4215
21.3629
37.4691
35.5314
33.5724
31.9313
30.5685
29.3963
28.3422
27.3537
26.3934
25.4345
24.4592
23.4568
22.424
21.3645
36.7721
35.3418
33.6013
32.0129
30.6454
29.4562
28.3869
27.3877
26.4205
25.4571
24.4781
23.4721
22.4351
21.3705
39.6061
37.6882
35.1236
32.8701
31.0814
29.666
28.5001
27.4821
26.5369
25.6094
24.6581
23.6538
22.5834
21.453
39.4139
37.5342
35.0186
32.804
31.0411
29.6406
28.482
27.4663
26.5207
25.5916
24.6396
23.6367
22.5707
21.4472
39.037
37.2337
34.8152
32.6775
30.9649
29.5935
28.449
27.4378
26.4913
25.5593
24.6056
23.605
22.5466
21.4351
38.4926
36.8033
34.5281
32.5024
30.8627
29.5328
28.4082
27.4035
26.4558
25.5199
24.5635
23.5651
22.5155
21.4183
37.8092
36.2702
34.18
32.2968
30.7481
29.4692
28.3688
27.3717
26.4227
25.4822
24.5223
23.5252
22.4837
21.4006
37.0304
35.6745
33.8035
32.0848
30.6383
29.4151
28.3402
27.3507
26.3999
25.4541
24.4899
23.4928
22.4571
21.3858
36.2228
35.0745
33.4422
31.8961
30.5525
29.3825
28.3303
27.3465
26.3928
25.4411
24.4717
23.4728
22.4399
21.3761
35.4884
34.552
33.1521
31.7643
30.5086
29.3802
28.3434
27.3614
26.4033
25.4453
24.4702
23.4676
22.434
21.3727
34.9752
34.216
32.9993
31.7226
30.5195
29.4106
28.3775
27.3926
26.4294
25.4658
24.4854
23.4781
22.4405
21.376
34.8503
34.1932
33.0526
31.7966
30.5879
29.467
28.4237
27.4323
26.4654
25.4994
24.5163
23.5046
22.4604
21.3871
35.636
35.0303
33.6865
32.1995
30.8197
29.6038
28.5306
27.5565
26.636
25.7263
24.7855
23.777
22.6847
21.5308
35.5229
34.9294
33.6096
32.1457
30.7831
29.5779
28.5097
27.5363
26.6138
25.701
24.7583
23.7517
22.6661
21.5218
35.3036
34.7344
33.4617
32.0431
30.7143
29.5299
28.4715
27.4998
26.5736
25.6548
24.7081
23.7043
22.6303
21.5018
34.9938
34.46
33.2558
31.9027
30.6223
29.4677
28.4237
27.4549
26.5243
25.5979
24.6457
23.6441
22.5832
21.4717
34.6182
34.1294
33.0118
31.7405
30.52
29.4021
28.376
27.4116
26.4769
25.5429
24.585
23.5848
22.5351
21.4403
34.2128
33.775
32.756
31.5768
30.4227
29.3449
28.3383
27.3792
26.4413
25.5006
24.5372
23.5373
22.4954
21.4148
33.8275
33.4397
32.522
31.4357
30.3468
29.3074
28.319
27.3649
26.4243
25.4778
24.5092
23.5078
22.4697
21.3983
33.5279
33.1766
32.3485
31.3428
30.3081
29.2989
28.3238
27.3727
26.4295
25.4778
24.5041
23.4992
22.4605
21.3917
33.3872
33.0437
32.2766
31.3231
30.3194
29.3247
28.3544
27.4031
26.4573
25.5017
24.5233
23.5134
22.4695
21.3957
33.4339
33.0874
32.3441
31.3978
30.3891
29.386
28.4089
27.4536
26.5059
25.549
24.5678
23.5521
22.4988
21.4122
33.395
33.2094
32.4726
31.4895
30.4521
29.4492
28.5068
27.6193
26.7656
25.9135
25.0151
24.0097
22.8599
21.6739
33.325
33.1435
32.4182
31.4477
30.4203
29.4234
28.4825
27.5925
26.733
25.8737
24.9701
23.9672
22.8311
21.6602
33.1914
33.0177
32.3146
31.3687
30.3609
29.3756
28.4381
27.5438
26.6738
25.8006
24.8863
23.8862
22.7738
21.6257
33.0083
32.8449
32.1733
31.2623
30.2826
29.3144
28.3825
27.4837
26.6009
25.7101
24.7808
23.7813
22.6976
21.5663
32.797
32.6443
32.0106
31.1424
30.1971
29.2504
28.3269
27.4249
26.5305
25.6236
24.6813
23.6823
22.6189
21.5055
32.5866
32.4414
31.8478
31.0258
30.1181
29.1953
28.2821
27.3792
26.476
25.5568
24.6047
23.6056
22.5548
21.4586
32.4134
32.2664
31.7087
30.9309
30.0595
29.1598
28.2572
27.3551
26.446
25.518
24.5586
23.5579
22.5133
21.4294
32.3169
32.1509
31.6183
30.876
30.0338
29.1526
28.2587
27.3579
26.4453
25.5112
24.5457
23.5415
22.4969
21.4168
32.3256
32.1197
31.5981
30.877
30.0513
29.1797
28.29
27.3899
26.4756
25.5381
24.5677
23.5577
22.5067
21.4204
32.409
32.1769
31.6628
30.9464
30.1194
29.2444
28.3521
27.4513
26.5375
25.5999
24.6268
23.6095
22.546
21.4422
32.0678
32.0014
31.5565
30.8791
30.0923
29.2753
28.4698
27.6923
26.9419
26.1978
25.4026
24.4293
23.0962
21.9135
32.022
31.9575
31.518
30.8468
30.0645
29.2489
28.4408
27.656
26.8934
26.1336
25.3246
24.3529
23.0533
21.8955
31.9362
31.8749
31.4456
30.7862
30.013
29.2006
28.3881
27.5901
26.8047
26.0144
25.1761
24.2025
22.9666
21.8407
31.8234
31.765
31.3492
30.7064
29.9462
29.1393
28.3224
27.5087
26.6953
25.8655
24.9842
23.9958
22.8565
21.7209
31.7019
31.6438
31.2426
30.6193
29.8752
29.0764
28.257
27.4294
26.591
25.7276
24.8145
23.8207
22.7332
21.6019
31.5952
31.5309
31.1423
30.5387
29.8123
29.0234
28.2043
27.367
26.5102
25.6236
24.6908
23.6953
22.632
21.5171
31.5294
31.4472
31.0651
30.4785
29.7689
28.9908
28.1743
27.3317
26.4632
25.5619
24.6171
23.6195
22.5669
21.4672
31.5269
31.4098
31.0256
30.451
29.7549
28.9863
28.1736
27.3293
26.4547
25.5448
24.592
23.5902
22.539
21.4451
31.5913
31.4247
31.0329
30.465
29.7776
29.0155
28.2064
27.363
26.4869
25.5733
24.615
23.6065
22.548
21.4468
31.6709
31.4765
31.0877
30.5256
29.8414
29.0811
28.2743
27.4342
26.5616
25.6497
24.6889
23.6718
22.5973
21.4737
31.2561
31.2111
30.9055
30.4078
29.7927
29.1227
28.443
27.7848
27.1693
26.6032
26.0499
25.289
23.4021
22.2292
31.224
31.1805
30.8774
30.3819
29.7676
29.0951
28.4082
27.7366
27.0991
26.5019
25.9134
25.1385
23.334
22.2106
31.1655
31.1242
30.8254
30.3341
29.7212
29.0446
28.3451
27.6487
26.9699
26.3108
25.6457
24.8352
23.1616
22.1504
31.0921
31.0521
30.7581
30.2725
29.6622
28.9813
28.2669
27.5404
26.8098
26.067
25.2742
24.3268
23.0207
21.9429
31.0202
30.9778
30.6874
30.2078
29.6012
28.9174
28.1896
27.4359
26.6604
25.8529
24.9836
24.0007
22.8633
21.7279
30.9691
30.9167
30.626
30.1515
29.5494
28.8648
28.1278
27.354
26.5468
25.6986
24.7909
23.8004
22.7186
21.5859
30.9576
30.8831
30.5861
30.1142
29.5168
28.8337
28.0919
27.3059
26.4794
25.6077
24.6803
23.6865
22.6244
21.5077
30.9976
30.8853
30.5755
30.1039
29.5108
28.831
28.0888
27.2976
26.4614
25.5773
24.6389
23.6404
22.5822
21.4734
31.0797
30.9191
30.5955
30.1245
29.5363
28.8614
28.1225
27.3323
26.4944
25.606
24.6611
23.655
22.5889
21.4721
31.1464
30.9617
30.64
30.1765
29.5955
28.9271
28.195
27.4121
26.5809
25.6962
24.7494
23.7332
22.6477
21.5033
30.7594
30.7073
30.468
30.0736
29.5707
29.0083
28.4324
27.8868
27.4197
27.0974
27.0421
27.4247
0.0
0.0
30.7351
30.6846
30.4464
30.0518
29.5468
28.9789
28.3917
27.8259
27.3251
26.9495
26.8151
27.0897
0.0
0.0
30.6918
30.6437
30.4068
30.012
29.5033
28.9253
28.3177
27.7148
27.1497
26.6661
26.3615
26.4333
0.0
0.0
30.6403
30.5935
30.3572
29.9618
29.4486
28.8585
28.2262
27.5777
26.9308
26.2914
25.6373
24.8312
23.1555
22.1453
30.5954
30.546
30.308
29.9109
29.3933
28.792
28.1365
27.4469
26.7316
25.9834
25.1686
24.206
22.9735
21.849
30.5736
30.5137
30.2696
29.8695
29.3482
28.7382
28.0652
27.3451
26.5833
25.7726
24.8915
23.9063
22.7982
21.6495
30.5892
30.5067
30.2507
29.8459
29.322
28.7071
28.0233
27.2843
26.4949
25.6507
24.7403
23.75
22.6771
21.5439
30.6474
30.5281
30.2554
29.8453
29.3207
28.7051
28.0175
27.2701
26.4671
25.6064
24.6814
23.6859
22.6208
21.4979
30.7328
30.5686
30.2806
29.8688
29.3475
28.7361
28.0517
27.3052
26.5003
25.6344
24.7018
23.698
22.6248
21.4934
30.7876
30.6033
30.3172
29.9142
29.4028
28.8016
28.1278
27.3921
26.5968
25.7366
24.8026
23.7874
22.6917
21.5278
30.4729
30.4093
30.2007
29.8626
29.4269
28.9347
28.4322
27.9715
27.6186
27.4685
27.6745
28.4908
0.0
0.0
30.4527
30.391
30.1827
29.8431
29.4036
28.9036
28.3865
27.9003
27.5043
27.2844
27.3837
28.0417
0.0
0.0
30.4174
30.3585
30.1501
29.8077
29.3612
28.847
28.3036
27.7704
27.2921
26.9307
26.803
27.0742
0.0
0.0
30.3774
30.3202
30.1104
29.7638
29.3085
28.7769
28.2013
27.6103
27.0274
26.4645
25.895
25.1265
23.3188
22.2014
30.3465
30.2869
30.0729
29.7207
29.256
28.7075
28.1015
27.4584
26.7888
26.086
25.3093
24.3528
23.0579
21.9032
30.3393
30.2695
30.0469
29.6875
29.2143
28.6519
28.0223
27.3407
26.6128
25.8309
24.9696
23.9863
22.8565
21.6861
30.3675
30.2757
30.0391
29.6712
29.1913
28.62
27.9753
27.2697
26.5075
25.6843
24.7866
23.7983
22.7159
21.5676
30.433
30.3059
30.0511
29.6756
29.1924
28.6179
27.9672
27.2506
26.4719
25.6287
24.7137
23.7203
22.6495
21.5149
30.5172
30.3481
30.0782
29.7001
29.2196
28.6491
28.0016
27.2859
26.5048
25.6557
24.7323
23.7301
22.6513
21.5084
30.5636
30.3775
30.1097
29.7412
29.2725
28.7147
28.0804
27.3781
26.6088
25.7669
24.8425
23.828
22.7242
21.5451
30.3418
30.2711
30.0747
29.7615
29.3572
28.8995
28.4346
28.0189
27.7261
27.6626
27.9907
28.9629
0.0
0.0
30.3233
30.2547
30.0582
29.743
29.3341
28.8674
28.3862
27.9421
27.6013
27.4595
27.6679
28.462
0.0
0.0
30.2914
30.2258
30.0287
29.7095
29.292
28.8091
28.2984
27.8019
27.3693
27.0695
27.0246
27.3934
0.0
0.0
30.2563
30.1927
29.9934
29.6684
29.2399
28.7368
28.19
27.6293
27.0803
26.5568
26.0273
25.2724
23.37
22.2102
30.2313
30.1655
29.961
29.6286
29.1885
28.6656
28.0846
27.4658
26.8205
26.1416
25.3838
24.4279
23.0989
21.9203
30.2302
30.1545
29.9403
29.5989
29.148
28.6088
28.001
27.3393
26.6293
25.8629
25.0117
24.0287
22.8862
21.7011
30.2633
30.1661
29.9371
29.5857
29.1264
28.5762
27.9511
27.2626
26.5149
25.7027
24.8119
23.8243
22.7363
21.5787
30.3311
30.1994
29.9521
29.592
29.1283
28.5739
27.9416
27.2408
26.4748
25.6409
24.7313
23.7389
22.6648
21.5236
30.4138
30.242
29.9796
29.6167
29.1555
28.6051
27.9761
27.2761
26.5076
25.6673
24.7489
23.7475
22.6656
21.5164
30.4561
30.2687
30.0087
29.6558
29.2072
28.6707
28.0564
27.3712
26.6156
25.7833
24.8642
23.8499
22.7417
21.5542
30.342
30.2713
30.0749
29.7617
29.3574
28.8997
28.4349
28.0192
27.7266
27.6632
27.9913
28.963
0.0
0.0
30.3236
30.2549
30.0584
29.7432
29.3343
28.8676
28.3865
27.9425
27.6019
27.4606
27.6699
28.4661
0.0
0.0
30.2917
30.226
30.0289
29.7097
29.2923
28.8093
28.2987
27.8023
27.3701
27.0708
27.0273
27.3999
0.0
0.0
30.2565
30.1929
29.9935
29.6686
29.2402
28.7371
28.1904
27.6297
27.081
26.5578
26.029
25.2749
23.3712
22.2108
30.2315
30.1657
29.9612
29.6288
29.1887
28.6659
28.0849
27.4662
26.821
26.1424
25.3849
24.4292
23.0998
21.921
30.2304
30.1547
29.9405
29.5991
29.1483
28.609
28.0013
27.3396
26.6298
25.8634
25.0125
24.0295
22.887
21.7017
30.2635
30.1663
29.9373
29.5859
29.1266
28.5764
27.9514
27.263
26.5153
25.7032
24.8124
23.825
22.737
21.5793
30.3314
30.1997
29.9523
29.5922
29.1285
28.5742
27.9419
27.2411
26.4752
25.6413
24.7318
23.7395
22.6654
21.5242
30.4141
30.2422
29.9798
29.617
29.1557
28.6053
27.9764
27.2765
26.508
25.6677
24.7494
23.748
22.6662
21.5169
30.4563
30.2689
30.0089
29.656
29.2075
28.671
28.0567
27.3715
26.616
25.7838
24.8647
23.8505
22.7423
21.5548
30.4735
30.4098
30.2013
29.8632
29.4275
28.9354
28.433
27.9726
27.6199
27.4702
27.6763
28.4913
0.0
0.0
30.4534
30.3915
30.1832
29.8437
29.4042
28.9043
28.3874
27.9016
27.5061
27.2873
27.389
28.0525
0.0
0.0
30.418
30.359
30.1506
29.8083
29.3619
28.8478
28.3046
27.7717
27.2941
26.9342
26.8102
27.0915
0.0
0.0
30.378
30.3208
30.111
29.7644
29.3091
28.7777
28.2022
27.6116
27.0292
26.4673
25.8996
25.1334
23.3227
22.2037
30.3471
30.2875
30.0735
29.7213
29.2567
28.7083
28.1024
27.4596
26.7903
26.0881
25.3122
24.3563
23.0607
21.9056
30.34
30.2701
30.0475
29.6881
29.2149
28.6527
28.0232
27.3417
26.6141
25.8326
24.9716
23.9886
22.8587
21.6881
30.3682
30.2764
30.0397
29.6718
29.192
28.6207
27.9762
27.2707
26.5087
25.6856
24.7882
23.8001
22.7178
21.5693
30.4337
30.3065
30.0518
29.6762
29.1931
28.6187
27.9681
27.2516
26.473
25.6299
24.7152
23.7219
22.6511
21.5166
30.5178
30.3488
30.0789
29.7007
29.2202
28.6499
28.0025
27.2869
26.506
25.6569
24.7337
23.7317
22.653
21.5101
30.5643
30.3782
30.1104
29.7419
29.2732
28.7155
28.0813
27.3791
26.6101
25.7683
24.8441
23.8297
22.7261
21.547
30.7604
30.7082
30.4689
30.0745
29.5716
29.0094
28.4337
27.8885
27.4219
27.1001
27.0449
27.4257
0.0
0.0
30.7362
30.6856
30.4473
30.0527
29.5478
28.9801
28.3931
27.8278
27.3278
26.9536
26.8219
27.1022
0.0
0.0
30.6928
30.6447
30.4077
30.0129
29.5043
28.9265
28.3192
27.7168
27.1526
26.6708
26.3705
26.4546
0.0
0.0
30.6413
30.5945
30.3582
29.9627
29.4496
28.8598
28.2277
27.5796
26.9334
26.2953
25.6434
24.8403
23.1622
22.1506
30.5965
30.547
30.3089
29.9119
29.3944
28.7932
28.138
27.4487
26.7338
25.9864
25.1727
24.2111
22.9781
21.8531
30.5747
30.5147
30.2705
29.8705
29.3492
28.7394
28.0666
27.3468
26.5853
25.7751
24.8945
23.9097
22.8017
21.6529
30.5903
30.5077
30.2517
29.8469
29.323
28.7082
28.0246
27.2859
26.4967
25.6529
24.7428
23.7527
22.6799
21.5467
30.6485
30.5291
30.2564
29.8463
29.3218
28.7063
28.0189
27.2716
26.4689
25.6084
24.6837
23.6884
22.6234
21.5005
30.7339
30.5696
30.2817
29.8698
29.3486
28.7373
28.0531
27.3068
26.5021
25.6364
24.704
23.7004
22.6274
21.496
30.7887
30.6043
30.3183
29.9152
29.4039
28.8028
28.1292
27.3938
26.5987
25.7388
24.8051
23.7901
22.6946
21.5308
31.2574
31.2122
30.9067
30.409
29.7941
29.1242
28.4447
27.7869
27.1721
26.6068
26.0544
25.2948
23.4112
22.2402
31.2254
31.1818
30.8786
30.3832
29.7689
29.0967
28.4101
27.7389
27.1023
26.5064
25.92
25.1483
23.3476
22.225
31.1668
31.1255
30.8266
30.3354
29.7226
29.0462
28.3471
27.6512
26.9732
26.3156
25.6531
24.8472
23.178
22.1663
31.0935
31.0534
30.7594
30.2738
29.6636
28.9829
28.2688
27.5428
26.8129
26.0713
25.2802
24.3349
23.0296
21.9517
31.0216
30.9791
30.6886
30.2091
29.6026
28.919
28.1915
27.4382
26.6632
25.8564
24.9882
24.0063
22.8692
21.7337
30.9705
30.918
30.6273
30.1528
29.5508
28.8664
28.1296
27.3561
26.5494
25.7016
24.7945
23.8046
22.723
21.5903
30.959
30.8845
30.5874
30.1156
29.5182
28.8352
28.0937
27.308
26.4818
25.6104
24.6835
23.69
22.6281
21.5115
30.999
30.8867
30.5768
30.1052
29.5123
28.8326
28.0906
27.2996
26.4637
25.5799
24.6418
23.6435
22.5855
21.4768
31.0812
30.9205
30.5969
30.1259
29.5378
28.8631
28.1243
27.3344
26.4968
25.6087
24.6641
23.6582
22.5923
21.4756
31.1479
30.9632
30.6414
30.1779
29.597
28.9288
28.1969
27.4142
26.5834
25.6991
24.7526
23.7367
22.6515
21.5072
32.0693
32.0028
31.5579
30.8806
30.0939
29.277
28.4718
27.6948
26.9451
26.2019
25.4078
24.4359
23.1049
21.9238
32.0235
31.959
31.5194
30.8483
30.0662
29.2508
28.443
27.6587
26.8968
26.1381
25.3306
24.3607
23.0632
21.9067
31.9379
31.8764
31.4471
30.7878
30.0147
29.2025
28.3903
27.5928
26.8082
26.019
25.1823
24.2108
22.9769
21.8518
31.825
31.7665
31.3507
30.7079
29.9479
29.1412
28.3246
27.5114
26.6987
25.8698
24.9897
24.0027
22.8644
21.7292
31.7036
31.6453
31.2442
30.6208
29.8769
29.0783
28.2592
27.432
26.5941
25.7314
24.8191
23.8262
22.7392
21.6081
31.597
31.5325
31.1438
30.5403
29.814
29.0254
28.2065
27.3696
26.5132
25.627
24.6948
23.6998
22.6368
21.5221
31.5311
31.4488
31.0667
30.4802
29.7706
28.9927
28.1765
27.3341
26.466
25.565
24.6207
23.6234
22.5711
21.4715
31.5287
31.4115
31.0273
30.4527
29.7567
28.9882
28.1758
27.3317
26.4574
25.5478
24.5954
23.5939
22.5429
21.4491
31.5932
31.4265
31.0346
30.4667
29.7794
29.0174
28.2086
27.3654
26.4897
25.5764
24.6184
23.6103
22.552
21.4509
31.6727
31.4783
31.0894
30.5274
29.8433
29.0831
28.2766
27.4367
26.5645
25.653
24.6926
23.6758
22.6017
21.4782
33.3967
33.211
32.4742
31.4912
30.4539
29.4512
28.5091
27.622
26.7689
25.9177
25.0202
24.016
22.8675
21.6825
33.3268
33.1451
32.4198
31.4494
30.4222
29.4254
28.4849
27.5953
26.7365
25.8781
24.9756
23.974
22.8391
21.6691
33.1932
33.0194
32.3163
31.3704
30.3628
29.3777
28.4406
27.5467
26.6774
25.8051
24.8918
23.8929
22.7817
21.6342
33.0101
32.8466
32.1749
31.2641
30.2845
29.3165
28.385
27.4866
26.6044
25.7143
24.786
23.7874
22.7044
21.5736
32.7989
32.6461
32.0124
31.1442
30.1991
29.2526
28.3293
27.4277
26.5338
25.6275
24.6859
23.6876
22.6247
21.5115
32.5886
32.4433
31.8495
31.0276
30.1201
29.1974
28.2845
27.382
26.4792
25.5604
24.6088
23.6102
22.5598
21.4638
32.4153
32.2683
31.7105
30.9328
30.0614
29.1619
28.2596
27.3578
26.4491
25.5215
24.5624
23.5622
22.5178
21.434
32.319
32.1528
31.6202
30.8779
30.0358
29.1547
28.2611
27.3606
26.4483
25.5146
24.5495
23.5456
22.5011
21.4212
32.3277
32.1217
31.6001
30.8789
30.0534
29.1819
28.2925
27.3927
26.4787
25.5415
24.5715
23.5618
22.5111
21.4248
32.4111
32.179
31.6648
30.9484
30.1215
29.2466
28.3546
27.4542
26.5407
25.6035
24.6308
23.6139
22.5506
21.447
35.6378
35.0319
33.6881
32.2012
30.8215
29.6059
28.533
27.5593
26.6394
25.7305
24.7905
23.783
22.6915
21.5383
35.5247
34.9311
33.6113
32.1475
30.785
29.5801
28.5122
27.5393
26.6174
25.7053
24.7635
23.7578
22.6731
21.5293
35.3055
34.7361
33.4634
32.0449
30.7162
29.5321
28.4741
27.5028
26.5772
25.6591
24.7134
23.7103
22.6371
21.5091
34.9957
34.4618
33.2577
31.9046
30.6243
29.47
28.4263
27.4579
26.5279
25.6021
24.6506
23.6497
22.5894
21.4783
34.6202
34.1313
33.0136
31.7424
30.522
29.4044
28.3786
27.4146
26.4804
25.5469
24.5896
23.59
22.5407
21.4462
34.2149
33.7769
32.758
31.5788
30.4248
29.3472
28.3408
27.3821
26.4446
25.5044
24.5415
23.542
22.5004
21.42
33.8296
33.4417
32.5239
31.4377
30.349
29.3098
28.3216
27.3677
26.4276
25.4814
24.5132
23.5122
22.4743
21.4031
33.5301
33.1787
32.3505
31.3449
30.3103
29.3012
28.3264
27.3756
26.4327
25.4814
24.508
23.5035
22.465
21.3963
33.3894
33.0459
32.2787
31.3252
30.3216
29.3271
28.357
27.406
26.4605
25.5053
24.5273
23.5177
22.4741
21.4004
33.4362
33.0897
32.3463
31.4
30.3913
29.3884
28.4115
27.4566
26.5093
25.5528
24.572
23.5567
22.5036
21.4171
39.6079
37.6899
35.1252
32.8718
31.0833
29.6681
28.5026
27.485
26.5405
25.6136
24.6632
23.6596
22.59
21.4601
39.4157
37.5359
35.0203
32.8058
31.043
29.6428
28.4845
27.4693
26.5243
25.5959
24.6447
23.6426
22.5773
21.4543
39.0389
37.2355
34.817
32.6794
30.967
29.5958
28.4516
27.4409
26.4949
25.5637
24.6107
23.6108
22.553
21.4419
38.4946
36.8052
34.53
32.5043
30.8647
29.5351
28.4109
27.4065
26.4594
25.5241
24.5684
23.5706
22.5215
21.4246
37.8112
36.2721
34.1819
32.2988
30.7502
29.4715
28.3714
27.3747
26.4262
25.4862
24.5269
23.5304
22.4892
21.4064
37.0324
35.6765
33.8055
32.0868
30.6405
29.4175
28.3428
27.3537
26.4033
25.458
24.4942
23.4976
22.4622
21.3911
36.225
35.0765
33.4442
31.8982
30.5547
29.3849
28.333
27.3495
26.3961
25.4448
24.4758
23.4773
22.4447
21.3811
35.4906
34.5541
33.1542
31.7665
30.5109
29.3826
28.3461
27.3643
26.4066
25.449
24.4742
23.472
22.4386
21.3775
34.9776
34.2182
33.0015
31.7248
30.5218
29.413
28.3802
27.3956
26.4327
25.4695
24.4895
23.4825
22.4451
21.3808
34.8528
34.1955
33.0548
31.7988
30.5902
29.4694
28.4264
27.4353
26.4688
25.5033
24.5205
23.5092
22.4652
21.3921
46.9567
41.1449
36.3714
33.1719
31.0421
29.534
28.3666
27.3742
26.4571
25.5512
24.6147
23.6202
22.5565
21.4288
46.6151
40.92
36.241
33.1
31.0029
29.5117
28.3516
27.3611