# vtk DataFile Version 2.0
I need something to put here
ASCII

DATASET STRUCTURED_GRID
DIMENSIONS 14 11 21
POINTS 3234 float
1.400000 0.000000 0.000000
1.500000 0.000000 0.000000
1.600000 0.000000 0.000000
1.700000 0.000000 0.000000
1.800000 0.000000 0.000000
1.900000 0.000000 0.000000
2.000000 0.000000 0.000000
2.100000 0.000000 0.000000
2.200000 0.000000 0.000000
2.300000 0.000000 0.000000
2.400000 0.000000 0.000000
2.500000 0.000000 0.000000
2.600000 0.000000 0.000000
2.700000 0.000000 0.000000
1.400000 0.100000 0.000000
1.500000 0.100000 0.000000
1.600000 0.100000 0.000000
1.700000 0.100000 0.000000
1.800000 0.100000 0.000000
1.900000 0.100000 0.000000
2.000000 0.100000 0.000000
2.100000 0.100000 0.000000
2.200000 0.100000 0.000000
2.300000 0.100000 0.000000
2.400000 0.100000 0.000000
2.500000 0.100000 0.000000
2.600000 0.100000 0.000000
2.700000 0.100000 0.000000
1.400000 0.200000 0.000000
1.500000 0.200000 0.000000
1.600000 0.200000 0.000000
1.700000 0.200000 0.000000
1.800000 0.200000 0.000000
1.900000 0.200000 0.000000
2.000000 0.200000 0.000000
2.100000 0.200000 0.000000
2.200000 0.200000 0.000000
2.300000 0.200000 0.000000
2.400000 0.200000 0.000000
2.500000 0.200000 0.000000
2.600000 0.200000 0.000000
2.700000 0.200000 0.000000
1.400000 0.300000 0.000000
1.500000 0.300000 0.000000
1.600000 0.300000 0.000000
1.700000 0.300000 0.000000
1.800000 0.300000 0.000000
1.900000 0.300000 0.000000
2.000000 0.300000 0.000000
2.100000 0.300000 0.000000
2.200000 0.300000 0.000000
2.300000 0.300000 0.000000
2.400000 0.300000 0.000000
2.500000 0.300000 0.000000
2.600000 0.300000 0.000000
2.700000 0.300000 0.000000
1.400000 0.400000 0.000000
1.500000 0.400000 0.000000
1.600000 0.400000 0.000000
1.700000 0.400000 0.000000
1.800000 0.400000 0.000000
1.900000 0.400000 0.000000
2.000000 0.400000 0.000000
2.100000 0.400000 0.000000
2.200000 0.400000 0.000000
2.300000 0.400000 0.000000
2.400000 0.400000 0.000000
2.500000 0.400000 0.000000
2.600000 0.400000 0.000000
2.700000 0.400000 0.000000
1.400000 0.500000 0.000000
1.500000 0.500000 0.000000
1.600000 0.500000 0.000000
1.700000 0.500000 0.000000
1.800000 0.500000 0.000000
1.900000 0.500000 0.000000
2.000000 0.500000 0.000000
2.100000 0.500000 0.000000
2.200000 0.500000 0.000000
2.300000 0.500000 0.000000
2.400000 0.500000 0.000000
2.500000 0.500000 0.000000
2.600000 0.500000 0.000000
2.700000 0.500000 0.000000
1.400000 0.600000 0.000000
1.500000 0.600000 0.000000
1.600000 0.600000 0.000000
1.700000 0.600000 0.000000
1.800000 0.600000 0.000000
1.900000 0.600000 0.000000
2.000000 0.600000 0.000000
2.100000 0.600000 0.000000
2.200000 0.600000 0.000000
2.300000 0.600000 0.000000
2.400000 0.600000 0.000000
2.500000 0.600000 0.000000
2.600000 0.600000 0.000000
2.700000 0.600000 0.000000
1.400000 0.700000 0.000000
1.500000 0.700000 0.000000
1.600000 0.700000 0.000000
1.700000 0.700000 0.000000
1.800000 0.700000 0.000000
1.900000 0.700000 0.000000
2.000000 0.700000 0.000000
2.100000 0.700000 0.000000
2.200000 0.700000 0.000000
2.300000 0.700000 0.000000
2.400000 0.700000 0.000000
2.500000 0.700000 0.000000
2.600000 0.700000 0.000000
2.700000 0.700000 0.000000
1.400000 0.800000 0.000000
1.500000 0.800000 0.000000
1.600000 0.800000 0.000000
1.700000 0.800000 0.000000
1.800000 0.800000 0.000000
1.900000 0.800000 0.000000
2.000000 0.800000 0.000000
2.100000 0.800000 0.000000
2.200000 0.800000 0.000000
2.300000 0.800000 0.000000
2.400000 0.800000 0.000000
2.500000 0.800000 0.000000
2.600000 0.800000 0.000000
2.700000 0.800000 0.000000
1.400000 0.900000 0.000000
1.500000 0.900000 0.000000
1.600000 0.900000 0.000000
1.700000 0.900000 0.000000
1.800000 0.900000 0.000000
1.900000 0.900000 0.000000
2.000000 0.900000 0.000000
2.100000 0.900000 0.000000
2.200000 0.900000 0.000000
2.300000 0.900000 0.000000
2.400000 0.900000 0.000000
2.500000 0.900000 0.000000
2.600000 0.900000 0.000000
2.700000 0.900000 0.000000
1.400000 1.000000 0.000000
1.500000 1.000000 0.000000
1.600000 1.000000 0.000000
1.700000 1.000000 0.000000
1.800000 1.000000 0.000000
1.900000 1.000000 0.000000
2.000000 1.000000 0.000000
2.100000 1.000000 0.000000
2.200000 1.000000 0.000000
2.300000 1.000000 0.000000
2.400000 1.000000 0.000000
2.500000 1.000000 0.000000
2.600000 1.000000 0.000000
2.700000 1.000000 0.000000
1.400000 0.000000 0.100000
1.500000 0.000000 0.100000
1.600000 0.000000 0.100000
1.700000 0.000000 0.100000
1.800000 0.000000 0.100000
1.900000 0.000000 0.100000
2.000000 0.000000 0.100000
2.100000 0.000000 0.100000
2.200000 0.000000 0.100000
2.300000 0.000000 0.100000
2.400000 0.000000 0.100000
2.500000 0.000000 0.100000
2.600000 0.000000 0.100000
2.700000 0.000000 0.100000
1.400000 0.100000 0.100000
1.500000 0.100000 0.100000
1.600000 0.100000 0.100000
1.700000 0.100000 0.100000
1.800000 0.100000 0.100000
1.900000 0.100000 0.100000
2.000000 0.100000 0.100000
2.100000 0.100000 0.100000
2.200000 0.100000 0.100000
2.300000 0.100000 0.100000
2.400000 0.100000 0.100000
2.500000 0.100000 0.100000
2.600000 0.100000 0.100000
2.700000 0.100000 0.100000
1.400000 0.200000 0.100000
1.500000 0.200000 0.100000
1.600000 0.200000 0.100000
1.700000 0.200000 0.100000
1.800000 0.200000 0.100000
1.900000 0.200000 0.100000
2.000000 0.200000 0.100000
2.100000 0.200000 0.100000
2.200000 0.200000 0.100000
2.300000 0.200000 0.100000
2.400000 0.200000 0.100000
2.500000 0.200000 0.100000
2.600000 0.200000 0.100000
2.700000 0.200000 0.100000
1.400000 0.300000 0.100000
1.500000 0.300000 0.100000
1.600000 0.300000 0.100000
1.700000 0.300000 0.100000
1.800000 0.300000 0.100000
1.900000 0.300000 0.100000
2.000000 0.300000 0.100000
2.100000 0.300000 0.100000
2.200000 0.300000 0.100000
2.300000 0.300000 0.100000
2.400000 0.300000 0.100000
2.500000 0.300000 0.100000
2.600000 0.300000 0.100000
2.700000 0.300000 0.100000
1.400000 0.400000 0.100000
1.500000 0.400000 0.100000
1.600000 0.400000 0.100000
1.700000 0.400000 0.100000
1.800000 0.400000 0.100000
1.900000 0.400000 0.100000
2.000000 0.400000 0.100000
2.100000 0.400000 0.100000
2.200000 0.400000 0.100000
2.300000 0.400000 0.100000
2.400000 0.400000 0.100000
2.500000 0.400000 0.100000
2.600000 0.400000 0.100000
2.700000 0.400000 0.100000
1.400000 0.500000 0.100000
1.500000 0.500000 0.100000
1.600000 0.500000 0.100000
1.700000 0.500000 0.100000
1.800000 0.500000 0.100000
1.900000 0.500000 0.100000
2.000000 0.500000 0.100000
2.100000 0.500000 0.100000
2.200000 0.500000 0.100000
2.300000 0.500000 0.100000
2.400000 0.500000 0.100000
2.500000 0.500000 0.100000
2.600000 0.500000 0.100000
2.700000 0.500000 0.100000
1.400000 0.600000 0.100000
1.500000 0.600000 0.100000
1.600000 0.600000 0.100000
1.700000 0.600000 0.100000
1.800000 0.600000 0.100000
1.900000 0.600000 0.100000
2.000000 0.600000 0.100000
2.100000 0.600000 0.100000
2.200000 0.600000 0.100000
2.300000 0.600000 0.100000
2.400000 0.600000 0.100000
2.500000 0.600000 0.100000
2.600000 0.600000 0.100000
2.700000 0.600000 0.100000
1.400000 0.700000 0.100000
1.500000 0.700000 0.100000
1.600000 0.700000 0.100000
1.700000 0.700000 0.100000
1.800000 0.700000 0.100000
1.900000 0.700000 0.100000
2.000000 0.700000 0.100000
2.100000 0.700000 0.100000
2.200000 0.700000 0.100000
2.300000 0.700000 0.100000
2.400000 0.700000 0.100000
2.500000 0.700000 0.100000
2.600000 0.700000 0.100000
2.700000 0.700000 0.100000
1.400000 0.800000 0.100000
1.500000 0.800000 0.100000
1.600000 0.800000 0.100000
1.700000 0.800000 0.100000
1.800000 0.800000 0.100000
1.900000 0.800000 0.100000
2.000000 0.800000 0.100000
2.100000 0.800000 0.100000
2.200000 0.800000 0.100000
2.300000 0.800000 0.100000
2.400000 0.800000 0.100000
2.500000 0.800000 0.100000
2.600000 0.800000 0.100000
2.700000 0.800000 0.100000
1.400000 0.900000 0.100000
1.500000 0.900000 0.100000
1.600000 0.900000 0.100000
1.700000 0.900000 0.100000
1.800000 0.900000 0.100000
1.900000 0.900000 0.100000
2.000000 0.900000 0.100000
2.100000 0.900000 0.100000
2.200000 0.900000 0.100000
2.300000 0.900000 0.100000
2.400000 0.900000 0.100000
2.500000 0.900000 0.100000
2.600000 0.900000 0.100000
2.700000 0.900000 0.100000
1.400000 1.000000 0.100000
1.500000 1.000000 0.100000
1.600000 1.000000 0.100000
1.700000 1.000000 0.100000
1.800000 1.000000 0.100000
1.900000 1.000000 0.100000
2.000000 1.000000 0.100000
2.100000 1.000000 0.100000
2.200000 1.000000 0.100000
2.300000 1.000000 0.100000
2.400000 1.000000 0.100000
2.500000 1.000000 0.100000
2.600000 1.000000 0.100000
2.700000 1.000000 0.100000
1.400000 0.000000 0.200000
1.500000 0.000000 0.200000
1.600000 0.000000 0.200000
1.700000 0.000000 0.200000
1.800000 0.000000 0.200000
1.900000 0.000000 0.200000
2.000000 0.000000 0.200000
2.100000 0.000000 0.200000
2.200000 0.000000 0.200000
2.300000 0.000000 0.200000
2.400000 0.000000 0.200000
2.500000 0.000000 0.200000
2.600000 0.000000 0.200000
2.700000 0.000000 0.200000
1.400000 0.100000 0.200000
1.500000 0.100000 0.200000
1.600000 0.100000 0.200000
1.700000 0.100000 0.200000
1.800000 0.100000 0.200000
1.900000 0.100000 0.200000
2.000000 0.100000 0.200000
2.100000 0.100000 0.200000
2.200000 0.100000 0.200000
2.300000 0.100000 0.200000
2.400000 0.100000 0.200000
2.500000 0.100000 0.200000
2.600000 0.100000 0.200000
2.700000 0.100000 0.200000
1.400000 0.200000 0.200000
1.500000 0.200000 0.200000
1.600000 0.200000 0.200000
1.700000 0.200000 0.200000
1.800000 0.200000 0.200000
1.900000 0.200000 0.200000
2.000000 0.200000 0.200000
2.100000 0.200000 0.200000
2.200000 0.200000 0.200000
2.300000 0.200000 0.200000
2.400000 0.200000 0.200000
2.500000 0.200000 0.200000
2.600000 0.200000 0.200000
2.700000 0.200000 0.200000
1.400000 0.300000 0.200000
1.500000 0.300000 0.200000
1.600000 0.300000 0.200000
1.700000 0.300000 0.200000
1.800000 0.300000 0.200000
1.900000 0.300000 0.200000
2.000000 0.300000 0.200000
2.100000 0.300000 0.200000
2.200000 0.300000 0.200000
2.300000 0.300000 0.200000
2.400000 0.300000 0.200000
2.500000 0.300000 0.200000
2.600000 0.300000 0.200000
2.700000 0.300000 0.200000
1.400000 0.400000 0.200000
[...]
CELL_DATA 2600
SCALARS pressure float 1
LOOKUP_TABLE default
19.6198
18.6093
17.6124
16.6409
15.7029
14.8021
13.9388
13.1105
12.3134
11.5425
10.7931
10.0607
9.34136
19.6192
18.6084
17.6111
16.6394
15.7014
14.8008
13.9379
13.11
12.3131
11.5424
10.7932
10.0609
9.34165
19.6147
18.5989
17.5972
16.6228
15.6839
14.784
13.9226
13.0969
12.3023
11.5339
10.7867
10.0561
9.33816
19.6067
18.5809
17.5708
16.5913
15.6509
14.7522
13.8939
13.0721
12.2819
11.5177
10.7742
10.0467
9.3313
19.5959
18.5546
17.5322
16.5458
15.6036
14.7069
13.8531
13.0372
12.2531
11.4948
10.7565
10.0335
9.32164
19.5827
18.5214
17.4838
16.4894
15.5455
14.6518
13.8038
12.9951
12.2186
11.4674
10.7355
10.0178
9.31017
19.5678
18.4841
17.4303
16.4277
15.4826
14.5926
13.7512
12.9504
12.1821
11.4387
10.7135
10.0013
9.29823
19.5529
18.4476
17.3786
16.3688
15.4232
14.5371
13.7022
12.9091
12.1485
11.4123
10.6933
9.98638
9.28737
19.5404
18.4181
17.3373
16.3222
15.3765
14.4937
13.6641
12.8771
12.1227
11.392
10.6779
9.97497
9.27911
19.5333
18.4017
17.3144
16.2965
15.3508
14.4699
13.6433
12.8597
12.1086
11.381
10.6696
9.9688
9.27465
19.6222
18.6098
17.6116
16.6394
15.7012
14.8005
13.9375
13.1097
12.3128
11.5422
10.7931
10.0608
9.34155
19.623
18.6153
17.621
16.6517
15.7151
14.8151
13.9517
13.1228
12.3245
11.5522
10.8014
10.0676
9.34689
19.6207
18.6116
17.6161
16.6463
15.71
14.8106
13.9483
13.1204
12.323
11.5515
10.8012
10.0678
9.34732
19.6155
18.5994
17.5982
16.6251
15.6881
14.7898
13.9298
13.1048
12.3104
11.5417
10.7939
10.0625
9.34363
19.608
18.5795
17.5687
16.5904
15.652
14.7555
13.899
13.0785
12.2889
11.5248
10.7809
10.0529
9.33671
19.5986
18.5535
17.5303
16.5454
15.6056
14.7115
13.8596
13.0449
12.2614
11.503
10.7643
10.0405
9.32769
19.5881
18.5238
17.487
16.4954
15.5546
14.6633
13.8168
13.0086
12.2317
11.4796
10.7463
10.027
9.31793
19.5775
18.4945
17.4448
16.4474
15.5061
14.6179
13.7766
12.9745
12.204
11.4577
10.7296
10.0146
9.3089
19.5685
18.4707
17.4111
16.4093
15.4679
14.5823
13.7452
12.9481
12.1826
11.4409
10.7168
10.0051
9.30198
19.5634
18.4575
17.3925
16.3883
15.4468
14.5628
13.7281
12.9338
12.1709
11.4318
10.7098
9.99991
9.29823
19.6276
18.6067
17.6018
16.6253
15.6851
14.7844
13.9227
13.0967
12.3021
11.5337
10.7865
10.0559
9.33797
19.6295
18.6173
17.6197
16.6486
15.7113
14.8114
13.9487
13.1205
12.323
11.5515
10.8012
10.0677
9.34726
19.6292
18.6179
17.6212
16.6513
15.7154
14.8166
13.9546
13.1267
12.3291
11.5572
10.8063
10.0722
9.35105
19.6268
18.6089
17.6076
16.6357
15.7001
14.8029
13.9431
13.1178
12.3225
11.5526
10.8033
10.0704
9.35013
19.6224
18.5908
17.5801
16.6041
15.6683
14.7736
13.9176
13.0967
12.3058
11.5398
10.7939
10.0637
9.34552
19.6163
18.5645
17.541
16.5601
15.6245
14.733
13.8822
13.0671
12.2821
11.5215
10.7802
10.0537
9.33845
19.6086
18.5322
17.4946
16.5091
15.5743
14.687
13.8422
13.0338
12.2554
11.5008
10.7646
10.0423
9.33032
19.5997
18.4981
17.4476
16.4587
15.5254
14.6424
13.8037
13.002
12.23
11.4812
10.7499
10.0315
9.32257
19.591
18.4697
17.4091
16.4178
15.4861
14.607
13.7732
12.9769
12.2101
11.4659
10.7384
10.0231
9.31654
19.5856
18.4538
17.3876
16.3949
15.4642
14.5873
13.7565
12.9632
12.1992
11.4575
10.7321
10.0185
9.31327
19.6338
18.5984
17.5818
16.5981
15.6549
14.7544
13.895
13.0726
12.282
11.5176
10.774
10.0465
9.33109
19.6362
18.6135
17.6076
16.6313
15.692
14.7923
13.9313
13.1056
12.3108
11.5419
10.794
10.0625
9.34359
19.6379
18.6167
17.613
16.6394
15.7025
14.8045
13.9442
13.1184
12.3229
11.5528
10.8034
10.0705
9.35015
19.6379
18.6075
17.5986
16.6242
15.6891
14.7939
13.9365
13.1135
12.3203
11.5519
10.8037
10.0715
9.35151
19.6362
18.585
17.5648
16.5879
15.655
14.764
13.9119
13.0942
12.3058
11.5416
10.7967
10.0669
9.34871
19.6326
18.5478
17.5127
16.5341
15.6046
14.7196
13.8747
13.0645
12.283
11.5247
10.7846
10.0585
9.34307
19.6259
18.4964
17.4464
16.4692
15.5449
14.6671
13.8308
13.0294
12.256
11.5046
10.77
10.0482
9.33602
19.6145
18.4368
17.3756
16.4028
15.4845
14.6146
13.7874
12.9949
12.2296
11.485
10.7558
10.0382
9.32908
19.6001
18.3864
17.3157
16.3465
15.4342
14.5716
13.7522
12.9673
12.2087
11.4694
10.7446
10.0302
9.32359
19.5907
18.3586
17.2822
16.3146
15.4058
14.5474
13.7326
12.952
12.1971
11.4609
10.7384
10.0259
9.32058
19.6381
18.583
17.5509
16.5579
15.6111
14.7115
13.8558
13.0387
12.2539
11.4951
10.7566
10.0334
9.32151
19.6415
18.6031
17.5849
16.6013
15.6592
14.7602
13.902
13.0803
12.29
11.5254
10.7813
10.053
9.33675
19.6449
18.6072
17.5917
16.6122
15.6739
14.7773
13.9201
13.0983
12.3068
11.5404
10.7943
10.0639
9.34564
19.6471
18.5931
17.5707
16.5922
15.6579
14.7661
13.9133
13.0952
12.3065
11.542
10.7969
10.067
9.34881
19.6475
18.556
17.5197
16.5428
15.6146
14.7302
13.8852
13.0744
12.292
11.5325
10.7912
10.0639
9.34736
19.645
18.488
17.4368
16.4677
15.549
14.6747
13.8407
13.0404
12.2672
11.5152
10.7795
10.0563
9.34267
19.6347
18.3801
17.3247
16.3758
15.469
14.6067
13.7861
12.9989
12.2368
11.4937
10.7647
10.0464
9.33627
19.6078
18.2398
17.1992
16.2806
15.3851
14.536
13.7302
12.9568
12.2064
11.4722
10.7499
10.0365
9.32973
19.5695
18.1265
17.0894
16.1926
15.3113
14.4759
13.6838
12.9225
12.1818
11.455
10.7381
10.0285
9.32447
19.546
18.0681
17.0291
16.142
15.2686
14.4415
13.6576
12.9033
12.168
11.4454
10.7315
10.0241
9.32158
19.6388
18.5601
17.5101
16.5068
15.5568
14.659
13.8083
12.9978
12.2202
11.4683
10.7359
10.0179
9.31017
19.6439
18.586
17.5531
16.5612
15.6163
14.7186
13.8643
13.048
12.2633
11.5042
10.765
10.0408
9.32787
19.6491
18.5889
17.5587
16.5726
15.6332
14.7391
13.8863
13.0699
12.2839
11.5227
10.7809
10.0542
9.33871
19.6528
18.5632
17.5241
16.5425
15.6107
14.7239
13.8777
13.0665
12.2844
11.5256
10.7852
10.0589
9.34331
19.6538
18.4949
17.442
16.4717
15.5519
14.6768
13.8422
13.0415
12.268
11.5157
10.7798
10.0565
9.34282
19.6472
18.3535
17.3027
16.3656
15.4627
14.6028
13.7846
12.9994
12.2388
11.4964
10.7676
10.0492
9.3387
19.6125
18.0881
17.1055
16.2424
15.3522
14.5086
13.7116
12.9465
12.2021
11.4718
10.7516
10.0391
9.33259
19.507
17.6797
16.8821
16.1274
15.2296
14.4045
13.6336
12.8914
12.1646
11.4468
10.7353
10.0287
9.32616
19.3701
17.3975
16.6702
15.9857
15.1117
14.3128
13.5674
12.8457
12.1338
11.4265
10.7221
10.0203
9.32092
19.302
17.2715
16.561
15.9045
15.0428
14.2598
13.5295
12.8198
12.1165
11.4151
10.7148
10.0156
9.31801
19.6352
18.5316
17.463
16.4499
15.4974
14.6023
13.7575
12.9544
12.1846
11.4401
10.7143
10.0018
9.2984
19.643
18.5639
17.5156
16.5155
15.5685
14.6728
13.8232
13.0128
12.2344
11.4813
10.7474
10.0277
9.3183
19.6496
18.5631
17.5174
16.5255
15.586
14.6952
13.8479
13.0377
12.2581
11.5026
10.7658
10.043
9.33075
19.653
18.5175
17.4624
16.4811
15.5536
14.6734
13.8353
13.0326
12.2582
11.5061
10.771
10.0489
9.33644
19.6492
18.3918
17.3339
16.3829
15.4744
14.6108
13.7891
13.001
12.2384
11.4948
10.7654
10.0469
9.33659
19.617
18.092
17.1088
16.2452
15.3544
14.5104
13.713
12.9475
12.2029
11.4723
10.752
10.0394
9.33277
19.4625
17.3918
16.7916
16.1277
15.2004
14.3745
13.6124
12.8785
12.1575
11.4434
10.7341
10.0287
9.32671
18.9235
15.9632
16.509
16.0989
14.9958
14.2071
13.4987
12.8046
12.1102
11.4136
10.7157
10.0176
9.32019
18.3459
15.2682
16.1039
15.8328
14.7871
14.0581
13.4009
12.7424
12.0712
11.3893
10.7007
10.0085
9.31481
18.1433
15.0305
15.927
15.7109
14.6682
13.9727
13.3451
12.7071
12.0491
11.3757
10.6923
10.0034
9.31182
19.6285
18.5016
17.4163
16.3948
15.4409
14.5489
13.71
12.9142
12.1518
11.4143
10.6946
9.98709
9.28773
19.6394
18.5403
17.478
16.471
15.5226
14.6293
13.7844
12.9798
12.2075
11.4601
10.7311
10.0155
9.30945
19.6465
18.5339
17.4743
16.4782
15.5395
14.6525
13.8107
13.0069
12.2334
11.4835
10.7514
10.0325
9.32319
19.6461
18.4619
17.3949
16.4174
15.4954
14.6226
13.7931
12.9991
12.2325
11.487
10.7572
10.0391
9.32968
19.625
18.2541
17.2107
16.2897
15.3924
14.5415
13.7344
12.9599
12.2086
11.4738
10.751
10.0372
9.33023
19.5107
17.6838
16.886
16.1311
15.2332
14.4077
13.6362
12.8934
12.166
11.4478
10.7361
10.0293
9.32652
18.9144
15.9572
16.5051
16.0969
14.9966
14.2084
13.4999
12.8055
12.1109
11.4142
10.7161
10.0178
9.32037
0.0
0.0
0.0
0.0
14.4847
13.9108
13.3347
12.7084
12.0528
11.3793
10.6954
10.0058
9.31366
0.0
0.0
0.0
0.0
14.0382
13.6669
13.1946
12.6266
12.0044
11.3506
10.6784
9.99596
9.30809
0.0
0.0
0.0
0.0
13.8082
13.531
13.1154
12.5802
11.9771
11.3345
10.6689
9.99047
9.30499
19.6212
18.4763
17.3785
16.3509
15.3962
14.5072
13.6731
12.8831
12.1266
11.3946
10.6795
9.97592
9.27964
19.6348
18.5203
17.4473
16.4353
15.4863
14.5952
13.7542
12.9543
12.1867
11.4437
10.7186
10.0062
9.30269
19.6414
18.5086
17.4384
16.4394
15.5019
14.6183
13.7813
12.9826
12.2141
11.4686
10.7402
10.0243
9.31732
19.6344
18.4139
17.3371
16.3629
15.4466
14.5808
13.759
12.9722
12.2121
11.4719
10.7463
10.0314
9.32434
19.5882
18.1425
17.1025
16.2032
15.3198
14.4826
13.689
12.9264
12.1846
11.457
10.7395
10.0295
9.32513
19.3741
17.4025
16.675
15.9903
15.1165
14.3171
13.5709
12.8485
12.1359
11.428
10.7232
10.0211
9.32142
18.3383
15.2639
16.1003
15.8313
14.7891
14.0605
13.4031
12.7441
12.0725
11.3903
10.7014
10.009
9.31515
0.0
0.0
0.0
0.0
14.0405
13.6684
13.1957
12.6274
12.005
11.3511
10.6788
9.9962
9.30825
0.0
0.0
0.0
0.0
13.4035
13.3554
13.021
12.529
11.9488
11.3187
10.6602
9.98572
9.30252
0.0
0.0
0.0
0.0
13.1035
13.1824
12.9228
12.4733
11.9171
11.3006
10.6498
9.97987
9.29932
19.6167
18.462
17.3573
16.3266
15.3717
14.4843
13.6531
12.8663
12.113
11.3839
10.6715
9.96994
9.27532
19.6319
18.5089
17.4302
16.4156
15.4663
14.5765
13.7377
12.9404
12.1755
11.4349
10.7119
10.0012
9.29907
19.6378
18.4943
17.4183
16.4177
15.4809
14.5995
13.7652
12.9694
12.2036
11.4605
10.7342
10.0199
9.31417
19.6262
18.3873
17.3048
16.3319
15.419
14.5574
13.7399
12.9574
12.2009
11.4636
10.7403
10.0272
9.32144
19.5654
18.085
17.0431
16.1533
15.2779
14.449
13.6633
12.9076
12.1713
11.4477
10.7332
10.0252
9.32234
19.3064
17.2773
16.5664
15.9097
15.0484
14.2649
13.5337
12.8231
12.119
11.417
10.7161
10.0166
9.31863
18.1374
15.0279
15.9242
15.7098
14.6712
13.9761
13.348
12.7094
12.0509
11.377
10.6933
10.0041
9.31227
0.0
0.0
0.0
0.0
13.8129
13.5338
13.1173
12.5816
11.9782
11.3353
10.6695
9.99089
9.30527
0.0
0.0
0.0
0.0
13.1068
13.184
12.9238
12.474
11.9176
11.3009
10.6501
9.98005
9.29943
0.0
0.0
0.0
0.0
12.7726
12.9913
12.8152
12.4131
11.8834
11.2816
10.6392
9.974
9.29617
19.6171
18.4625
17.3578
16.327
15.3721
14.4846
13.6534
12.8665
12.1132
11.3841
10.6716
9.97006
9.27542
19.6323
18.5093
17.4306
16.4159
15.4666
14.5768
13.738
12.9407
12.1757
11.4351
10.712
10.0014
9.29916
19.6381
18.4947
17.4187
16.4181
15.4813
14.5998
13.7655
12.9696
12.2038
11.4607
10.7343
10.02
9.31426
19.6266
18.3877
17.3051
16.3323
15.4193
14.5577
13.7402
12.9576
12.2011
11.4638
10.7405
10.0273
9.32154
19.5657
18.0853
17.0435
16.1538
15.2784
14.4493
13.6636
12.9079
12.1715
11.4479
10.7333
10.0254
9.32243
19.3064
17.2775
16.5668
15.9104
15.0489
14.2653
13.5341
12.8234
12.1192
11.4171
10.7162
10.0167
9.31872
18.1367
15.0276
15.9246
15.711
14.6719
13.9766
13.3484
12.7097
12.0511
11.3772
10.6934
10.0042
9.31237
0.0
0.0
0.0
0.0
13.8136
13.5343
13.1177
12.582
11.9785
11.3355
10.6697
9.99101
9.30536
0.0
0.0
0.0
0.0
13.1079
13.1846
12.9242
12.4743
11.9179
11.3012
10.6503
9.98018
9.29953
0.0
0.0
0.0
0.0
12.7739
12.992
12.8157
12.4135
11.8837
11.2818
10.6394
9.97413
9.29627
19.6225
18.4777
17.3797
16.3521
15.3974
14.5082
13.6741
12.8839
12.1273
11.3951
10.68
9.97629
9.27994
19.636
18.5215
17.4485
16.4364
15.4873
14.5961
13.755
12.955
12.1874
11.4442
10.719
10.0066
9.30297
19.6425
18.5098
17.4396
16.4405
15.5029
14.6193
13.7822
12.9833
12.2147
11.4691
10.7406
10.0246
9.3176
19.6355
18.415
17.3383
16.364
15.4477
14.5818
13.7598
12.9729
12.2127
11.4724
10.7467
10.0317
9.32461
19.5892
18.1436
17.1037
16.2045
15.321
14.4837
13.6899
12.9271
12.1852
11.4575
10.7399
10.0298
9.3254
19.3746
17.4032
16.6762
15.9921
15.118
14.3183
13.5719
12.8493
12.1365
11.4285
10.7236
10.0214
9.3217
18.337
15.2632
16.1013
15.8346
14.791
14.0619
13.4041
12.745
12.0732
11.3908
10.7018
10.0093
9.31543
0.0
0.0
0.0
0.0
14.0423
13.6698
13.1968
12.6283
12.0058
11.3516
10.6792
9.99657
9.30854
0.0
0.0
0.0
0.0
13.4065
13.3572
13.0223
12.53
11.9496
11.3193
10.6607
9.9861
9.30281
0.0
0.0
0.0
0.0
13.107
13.1843
12.9241
12.4743
11.9179
11.3012
10.6503
9.98025
9.29961
19.6307
18.5037
17.4184
16.3968
15.4427
14.5506
13.7115
12.9155
12.1529
11.4152
10.6953
9.98768
9.28821
19.6414
18.5422
17.4799
16.4728
15.5243
14.6309
13.7858
12.981
12.2085
11.4609
10.7318
10.0161
9.30991
19.6484
18.5358
17.4762
16.48
15.5411
14.654
13.8121
13.008
12.2344
11.4843
10.7521
10.033
9.32364
19.6481
18.4638
17.3968
16.4192
15.4971
14.6241
13.7945
13.0002
12.2335
11.4878
10.7579
10.0396
9.33012
19.627
18.2561
17.2129
16.2919
15.3943
14.5432
13.7358
12.9611
12.2096
11.4746
10.7517
10.0378
9.33068
19.5125
17.6856
16.8883
16.1339
15.2355
14.4096
13.6377
12.8947
12.1671
11.4487
10.7368
10.0298
9.32697
18.9149
15.958
16.5075
16.1015
14.9993
14.2105
13.5015
12.8069
12.1121
11.4151
10.7168
10.0184
9.32082
0.0
0.0
0.0
0.0
14.4869
13.9129
13.3365
12.7099
12.0539
11.3802
10.6961
10.0064
9.31412
0.0
0.0
0.0
0.0
14.042
13.6695
13.1965
12.6281
12.0056
11.3516
10.6792
9.99657
9.30856
0.0
0.0
0.0
0.0
13.8125
13.5337
13.1174
12.5817
11.9783
11.3355
10.6697
9.99108
9.30546
19.6382
18.5345
17.4659
16.4526
15.4999
14.6045
13.7594
12.9561
12.186
11.4413
10.7153
10.0026
9.29903
19.6457
18.5666
17.5182
16.518
15.5708
14.6749
13.825
13.0144
12.2358
11.4824
10.7483
10.0284
9.3189
19.6523
18.5657
17.5199
16.5279
15.5883
14.6972
13.8496
13.0392
12.2594
11.5037
10.7667
10.0438
9.33135
19.6558
18.5203
17.4651
16.4837
15.5559
14.6755
13.8371
13.0341
12.2595
11.5072
10.7719
10.0496
9.33703
19.6524
18.3951
17.337
16.3858
15.4769
14.613
13.791
13.0026
12.2397
11.4959
10.7664
10.0477
9.33719
19.6213
18.0963
17.1128
16.2485
15.3573
14.5128
13.715
12.9492
12.2043
11.4735
10.7529
10.0401
9.33337
19.4694
17.3991
16.7975
16.1314
15.2035
14.3771
13.6146
12.8803
12.159
11.4446
10.7351
10.0295
9.32732
18.9395
15.982
16.5211
16.1
14.9986
14.2098
13.501
12.8065
12.1118
11.4149
10.7167
10.0184
9.32081
18.3637
15.288
16.1168
15.8359
14.7906
14.0611
13.4034
12.7444
12.0728
11.3906
10.7017
10.0093
9.31544
18.1617
15.0502
15.9402
15.7153
14.6722
13.9759
13.3476
12.7091
12.0508
11.377
10.6933
10.0042
9.31245
19.6423
18.5637
17.5135
16.5101
15.5598
14.6617
13.8107
12.9998
12.2219
11.4697
10.7371
10.0189
9.31092
19.6472
18.5893
17.5563
16.5642
15.6191
14.7211
13.8665
13.0499
12.2649
11.5056
10.7661
10.0417
9.3286
19.6523
18.5921
17.5618
16.5756
15.636
14.7415
13.8885
13.0718
12.2855
11.524
10.782
10.0551
9.33943
19.6562
18.5667
17.5275
16.5456
15.6135
14.7264
13.8799
13.0684
12.286
11.527
10.7863
10.0598
9.34402
19.6578
18.4989
17.4458
16.4751
15.555
14.6795
13.8445
13.0434
12.2696
11.5171
10.7809
10.0574
9.34353
19.6523
18.3586
17.3073
16.3696
15.4661
14.6057
13.787
13.0015
12.2405
11.4978
10.7687
10.0501
9.33942
19.6198
18.0954
17.1118
16.247
15.3559
14.5117
13.7142
12.9487
12.2039
11.4732
10.7528
10.04
9.33333
19.5181
17.691
16.8908
16.1324
15.2336
14.4078
13.6364
12.8937
12.1664
11.4483
10.7365
10.0297
9.3269
19.3829
17.4104
16.6801
15.9916
15.1162
14.3164
13.5703
12.8481
12.1357
11.428
10.7234
10.0213
9.32167
19.3158
17.2851
16.5714
15.911
15.0476
14.2636
13.5326
12.8223
12.1185
11.4167
10.716
10.0166
9.31876
19.6421
18.587
17.5548
16.5615
15.6145
14.7145
13.8585
13.041
12.2558
11.4967
10.7579
10.0345
9.32235
19.6452
18.6068
17.5885
16.6047
15.6624
14.763
13.9044
13.0825
12.2918
11.5269
10.7825
10.054
9.33757
19.6486
18.6108
17.5953
16.6156
15.677
14.7801
13.9226
13.1004
12.3086
11.542
10.7955
10.0649
9.34644
19.651
18.597
17.5744
16.5957
15.6611
14.7689
13.9158
13.0973
12.3083
11.5435
10.7982
10.068
9.3496
19.6519
18.5604
17.5239
16.5466
15.618
14.7332
13.8878
13.0766
12.2939
11.5341
10.7924
10.0649
9.34816
19.6503
18.4933
17.4417
16.4721
15.5528
14.678
13.8434
13.0428
12.2692
11.5168
10.7808
10.0573
9.34347
19.6414
18.3868
17.3307
16.3808
15.4732
14.6103
13.7891
13.0013
12.2389
11.4953
10.766
10.0475
9.33709
19.6163
18.2482
17.2065
16.2863
15.3898
14.5398
13.7334
12.9595
12.2085
11.4739
10.7513
10.0376
9.33056
19.5793
18.1361
17.0976
16.199
15.3163
14.48
13.6872
12.9253
12.184
11.4567
10.7395
10.0296
9.32531
19.5566
18.0784
17.0379
16.1487
15.2739
14.4458
13.661
12.9061
12.1703
11.4472
10.7329
10.0252
9.32242
19.638
18.6026
17.586
16.602
15.6584
14.7576
13.8978
13.075
12.284
11.5193
10.7754
10.0476
9.33198
19.6402
18.6175
17.6115
16.635
15.6954
14.7954
13.9339
13.1079
12.3128
11.5436
10.7953
10.0636
9.34445
19.6418
18.6207
17.6169
16.643
15.7059
14.8075
13.9468
13.1207
12.3248
11.5544
10.8048
10.0715
9.35101
19.6421
18.6117
17.6026
16.628
15.6926
14.7969
13.9392
13.1159
12.3222
11.5535
10.8051
10.0725
9.35235
19.6408
18.5896
17.5692
16.5921
15.6587
14.7673
13.9147
13.0966
12.3078
11.5432
10.798
10.068
9.34956
19.6379
18.5532
17.5177
16.5387
15.6087
14.7232
13.8777
13.067
12.2851
11.5264
10.7859
10.0596
9.34391
19.6322
18.5027
17.4523
16.4744
15.5494
14.671
13.8341
13.0321
12.2582
11.5064
10.7714
10.0493
9.33688
19.6219
18.4441
17.3823
16.4086
15.4895
14.6188
13.7908
12.9978
12.232
11.4868
10.7573
10.0393
9.32995
19.6084
18.3946
17.3232
16.3529
15.4396
14.576
13.7559
12.9703
12.2111
11.4714
10.7461
10.0314
9.32447
19.5995
18.3673
17.2901
16.3213
15.4113
14.552
13.7363
12.9551
12.1995
11.4629
10.7399
10.0271
9.32147
19.632
18.6111
17.606
16.6293
15.6888
14.7877
13.9256
13.0992
12.3042
11.5354
10.7879
10.057
9.33887
19.6336
18.6214
17.6238
16.6524
15.7148
14.8146
13.9515
13.1229
12.3251
11.5532
10.8025
10.0688
9.34814
19.6333
18.622
17.6253
16.6551
15.7189
14.8197
13.9573
13.1291
12.3311
11.5589
10.8077
10.0733
9.35191
19.6311
18.6132
17.6118
16.6397
15.7037
14.8061
13.9459
13.1202
12.3245
11.5542
10.8047
10.0715
9.35098
19.6271
18.5956
17.5847
16.6084
15.6722
14.777
13.9206
13.0992
12.3078
11.5415
10.7953
10.0648
9.34636
19.6217
18.57
17.5462
16.5648
15.6287
14.7367
13.8854
13.0698
12.2843
11.5233
10.7816
10.0548
9.3393
19.6148
18.5383
17.5005
16.5144
15.579
14.691
13.8456
13.0366
12.2577
11.5027
10.7661
10.0435
9.33117
19.6067
18.5051
17.4542
16.4646
15.5306
14.6468
13.8073
13.005
12.2324
11.4831
10.7514
10.0327
9.32344
19.5987
18.4773
17.4163
16.4242
15.4916
14.6116
13.7771
12.9801
12.2127
11.4679
10.7399
10.0243
9.31742
19.5938
18.4619
17.3952
16.4017
15.47
14.5922
13.7605
12.9664
12.2018
11.4595
10.7337
10.0197
9.31416
19.6264
18.6141
17.6158
16.6434
15.7048
14.8038
13.9404
13.1121
12.3149
11.544
10.7945
10.0619
9.34242
19.6272
18.6194
17.625
16.6555
15.7187
14.8182
13.9545
13.1252
12.3265
11.5539
10.8027
10.0687
9.34775
19.6249
18.6158
17.6202
16.6501
15.7135
14.8138
13.951
13.1227
12.325
11.5531
10.8025
10.0688
9.34815
19.62
18.6038
17.6025
16.6292
15.6918
14.7931
13.9326
13.1072
12.3124
11.5434
10.7952
10.0635
9.34443
19.6129
18.5845
17.5735
16.5948
15.656
14.759
13.902
13.081
12.291
11.5264
10.7823
10.0539
9.3375
19.6042
18.5591
17.5357
16.5504
15.6101
14.7153
13.8629
13.0476
12.2636
11.5048
10.7657
10.0415
9.32848
19.5945
18.5302
17.4931
16.501
15.5595
14.6676
13.8203
13.0114
12.234
11.4814
10.7477
10.0281
9.31873
19.5846
18.5017
17.4517
16.4536
15.5115
14.6225
13.7804
12.9776
12.2065
11.4597
10.7311
10.0157
9.30971
19.5763
18.4786
17.4186
16.4161
15.4737
14.5872
13.7493
12.9514
12.1852
11.4429
10.7183
10.0062
9.3028
19.5717
18.4659
17.4004
16.3954
15.453
14.5679
13.7323
12.9371
12.1736
11.4338
10.7114
10.0011
9.29906
19.624
18.6135
17.6165
16.6448
15.7064
14.8053
13.9416
13.113
12.3154
11.5442
10.7945
10.0618
9.34221
19.6232
18.6125
17.6151
16.6432
15.7049
14.804
13.9406
13.1123
12.315
11.5441
10.7945
10.062
9.34246
19.6188
18.6031
17.6013
16.6266
15.6874
14.7871
13.9253
13.0992
12.3042
11.5355
10.788
10.0571
9.33891
19.6112
18.5854
17.5751
16.5954
15.6546
14.7554
13.8967
13.0745
12.2838
11.5192
10.7754
10.0476
9.33201
19.601
18.5596
17.5371
16.5504
15.6076
14.7105
13.8561
13.0397
12.2551
11.4964
10.7578
10.0344
9.32233
19.5885
18.5272
17.4895
16.4946
15.55
14.6557
13.807
12.9977
12.2207
11.4691
10.7368
10.0187
9.31085
19.5746
18.491
17.4368
16.4336
15.4878
14.5969
13.7548
12.9533
12.1844
11.4404
10.7148
10.0023
9.29891