# vtk DataFile Version 2.0
I need something to put here
ASCII

DATASET STRUCTURED_GRID
DIMENSIONS 15 11 21
POINTS 3465 float
0.000000 1.000000 0.000000
0.100000 1.000000 0.000000
0.200000 1.000000 0.000000
0.300000 1.000000 0.000000
0.400000 1.000000 0.000000
0.500000 1.000000 0.000000
0.600000 1.000000 0.000000
0.700000 1.000000 0.000000
0.800000 1.000000 0.000000
0.900000 1.000000 0.000000
1.000000 1.000000 0.000000
1.100000 1.000000 0.000000
1.200000 1.000000 0.000000
1.300000 1.000000 0.000000
1.400000 1.000000 0.000000
0.000000 1.100000 0.000000
0.100000 1.100000 0.000000
0.200000 1.100000 0.000000
0.300000 1.100000 0.000000
0.400000 1.100000 0.000000
0.500000 1.100000 0.000000
0.600000 1.100000 0.000000
0.700000 1.100000 0.000000
0.800000 1.100000 0.000000
0.900000 1.100000 0.000000
1.000000 1.100000 0.000000
1.100000 1.100000 0.000000
1.200000 1.100000 0.000000
1.300000 1.100000 0.000000
1.400000 1.100000 0.000000
0.000000 1.200000 0.000000
0.100000 1.200000 0.000000
0.200000 1.200000 0.000000
0.300000 1.200000 0.000000
0.400000 1.200000 0.000000
0.500000 1.200000 0.000000
0.600000 1.200000 0.000000
0.700000 1.200000 0.000000
0.800000 1.200000 0.000000
0.900000 1.200000 0.000000
1.000000 1.200000 0.000000
1.100000 1.200000 0.000000
1.200000 1.200000 0.000000
1.300000 1.200000 0.000000
1.400000 1.200000 0.000000
0.000000 1.300000 0.000000
0.100000 1.300000 0.000000
0.200000 1.300000 0.000000
0.300000 1.300000 0.000000
0.400000 1.300000 0.000000
0.500000 1.300000 0.000000
0.600000 1.300000 0.000000
0.700000 1.300000 0.000000
0.800000 1.300000 0.000000
0.900000 1.300000 0.000000
1.000000 1.300000 0.000000
1.100000 1.300000 0.000000
1.200000 1.300000 0.000000
1.300000 1.300000 0.000000
1.400000 1.300000 0.000000
0.000000 1.400000 0.000000
0.100000 1.400000 0.000000
0.200000 1.400000 0.000000
0.300000 1.400000 0.000000
0.400000 1.400000 0.000000
0.500000 1.400000 0.000000
0.600000 1.400000 0.000000
0.700000 1.400000 0.000000
0.800000 1.400000 0.000000
0.900000 1.400000 0.000000
1.000000 1.400000 0.000000
1.100000 1.400000 0.000000
1.200000 1.400000 0.000000
1.300000 1.400000 0.000000
1.400000 1.400000 0.000000
0.000000 1.500000 0.000000
0.100000 1.500000 0.000000
0.200000 1.500000 0.000000
0.300000 1.500000 0.000000
0.400000 1.500000 0.000000
0.500000 1.500000 0.000000
0.600000 1.500000 0.000000
0.700000 1.500000 0.000000
0.800000 1.500000 0.000000
0.900000 1.500000 0.000000
1.000000 1.500000 0.000000
1.100000 1.500000 0.000000
1.200000 1.500000 0.000000
1.300000 1.500000 0.000000
1.400000 1.500000 0.000000
0.000000 1.600000 0.000000
0.100000 1.600000 0.000000
0.200000 1.600000 0.000000
0.300000 1.600000 0.000000
0.400000 1.600000 0.000000
0.500000 1.600000 0.000000
0.600000 1.600000 0.000000
0.700000 1.600000 0.000000
0.800000 1.600000 0.000000
0.900000 1.600000 0.000000
1.000000 1.600000 0.000000
1.100000 1.600000 0.000000
1.200000 1.600000 0.000000
1.300000 1.600000 0.000000
1.400000 1.600000 0.000000
0.000000 1.700000 0.000000
0.100000 1.700000 0.000000
0.200000 1.700000 0.000000
0.300000 1.700000 0.000000
0.400000 1.700000 0.000000
0.500000 1.700000 0.000000
0.600000 1.700000 0.000000
0.700000 1.700000 0.000000
0.800000 1.700000 0.000000
0.900000 1.700000 0.000000
1.000000 1.700000 0.000000
1.100000 1.700000 0.000000
1.200000 1.700000 0.000000
1.300000 1.700000 0.000000
1.400000 1.700000 0.000000
0.000000 1.800000 0.000000
0.100000 1.800000 0.000000
0.200000 1.800000 0.000000
0.300000 1.800000 0.000000
0.400000 1.800000 0.000000
0.500000 1.800000 0.000000
0.600000 1.800000 0.000000
0.700000 1.800000 0.000000
0.800000 1.800000 0.000000
0.900000 1.800000 0.000000
1.000000 1.800000 0.000000
1.100000 1.800000 0.000000
1.200000 1.800000 0.000000
1.300000 1.800000 0.000000
1.400000 1.800000 0.000000
0.000000 1.900000 0.000000
0.100000 1.900000 0.000000
0.200000 1.900000 0.000000
0.300000 1.900000 0.000000
0.400000 1.900000 0.000000
0.500000 1.900000 0.000000
0.600000 1.900000 0.000000
0.700000 1.900000 0.000000
0.800000 1.900000 0.000000
0.900000 1.900000 0.000000
1.000000 1.900000 0.000000
1.100000 1.900000 0.000000
1.200000 1.900000 0.000000
1.300000 1.900000 0.000000
1.400000 1.900000 0.000000
0.000000 2.000000 0.000000
0.100000 2.000000 0.000000
0.200000 2.000000 0.000000
0.300000 2.000000 0.000000
0.400000 2.000000 0.000000
0.500000 2.000000 0.000000
0.600000 2.000000 0.000000
0.700000 2.000000 0.000000
0.800000 2.000000 0.000000
0.900000 2.000000 0.000000
1.000000 2.000000 0.000000
1.100000 2.000000 0.000000
1.200000 2.000000 0.000000
1.300000 2.000000 0.000000
1.400000 2.000000 0.000000
0.000000 1.000000 0.100000
0.100000 1.000000 0.100000
0.200000 1.000000 0.100000
0.300000 1.000000 0.100000
0.400000 1.000000 0.100000
0.500000 1.000000 0.100000
0.600000 1.000000 0.100000
0.700000 1.000000 0.100000
0.800000 1.000000 0.100000
0.900000 1.000000 0.100000
1.000000 1.000000 0.100000
1.100000 1.000000 0.100000
1.200000 1.000000 0.100000
1.300000 1.000000 0.100000
1.400000 1.000000 0.100000
0.000000 1.100000 0.100000
0.100000 1.100000 0.100000
0.200000 1.100000 0.100000
0.300000 1.100000 0.100000
0.400000 1.100000 0.100000
0.500000 1.100000 0.100000
0.600000 1.100000 0.100000
0.700000 1.100000 0.100000
0.800000 1.100000 0.100000
0.900000 1.100000 0.100000
1.000000 1.100000 0.100000
1.100000 1.100000 0.100000
1.200000 1.100000 0.100000
1.300000 1.100000 0.100000
1.400000 1.100000 0.100000
0.000000 1.200000 0.100000
0.100000 1.200000 0.100000
0.200000 1.200000 0.100000
0.300000 1.200000 0.100000
0.400000 1.200000 0.100000
0.500000 1.200000 0.100000
0.600000 1.200000 0.100000
0.700000 1.200000 0.100000
0.800000 1.200000 0.100000
0.900000 1.200000 0.100000
1.000000 1.200000 0.100000
1.100000 1.200000 0.100000
1.200000 1.200000 0.100000
1.300000 1.200000 0.100000
1.400000 1.200000 0.100000
0.000000 1.300000 0.100000
0.100000 1.300000 0.100000
0.200000 1.300000 0.100000
0.300000 1.300000 0.100000
0.400000 1.300000 0.100000
0.500000 1.300000 0.100000
0.600000 1.300000 0.100000
0.700000 1.300000 0.100000
0.800000 1.300000 0.100000
0.900000 1.300000 0.100000
1.000000 1.300000 0.100000
1.100000 1.300000 0.100000
1.200000 1.300000 0.100000
1.300000 1.300000 0.100000
1.400000 1.300000 0.100000
0.000000 1.400000 0.100000
0.100000 1.400000 0.100000
0.200000 1.400000 0.100000
0.300000 1.400000 0.100000
0.400000 1.400000 0.100000
0.500000 1.400000 0.100000
0.600000 1.400000 0.100000
0.700000 1.400000 0.100000
0.800000 1.400000 0.100000
0.900000 1.400000 0.100000
1.000000 1.400000 0.100000
1.100000 1.400000 0.100000
1.200000 1.400000 0.100000
1.300000 1.400000 0.100000
1.400000 1.400000 0.100000
0.000000 1.500000 0.100000
0.100000 1.500000 0.100000
0.200000 1.500000 0.100000
0.300000 1.500000 0.100000
0.400000 1.500000 0.100000
0.500000 1.500000 0.100000
0.600000 1.500000 0.100000
0.700000 1.500000 0.100000
0.800000 1.500000 0.100000
0.900000 1.500000 0.100000
1.000000 1.500000 0.100000
1.100000 1.500000 0.100000
1.200000 1.500000 0.100000
1.300000 1.500000 0.100000
1.400000 1.500000 0.100000
0.000000 1.600000 0.100000
0.100000 1.600000 0.100000
0.200000 1.600000 0.100000
0.300000 1.600000 0.100000
0.400000 1.600000 0.100000
0.500000 1.600000 0.100000
0.600000 1.600000 0.100000
0.700000 1.600000 0.100000
0.800000 1.600000 0.100000
0.900000 1.600000 0.100000
1.000000 1.600000 0.100000
1.100000 1.600000 0.100000
1.200000 1.600000 0.100000
1.300000 1.600000 0.100000
1.400000 1.600000 0.100000
0.000000 1.700000 0.100000
0.100000 1.700000 0.100000
0.200000 1.700000 0.100000
0.300000 1.700000 0.100000
0.400000 1.700000 0.100000
0.500000 1.700000 0.100000
0.600000 1.700000 0.100000
0.700000 1.700000 0.100000
0.800000 1.700000 0.100000
0.900000 1.700000 0.100000
1.000000 1.700000 0.100000
1.100000 1.700000 0.100000
1.200000 1.700000 0.100000
1.300000 1.700000 0.100000
1.400000 1.700000 0.100000
0.000000 1.800000 0.100000
0.100000 1.800000 0.100000
0.200000 1.800000 0.100000
0.300000 1.800000 0.100000
0.400000 1.800000 0.100000
0.500000 1.800000 0.100000
0.600000 1.800000 0.100000
0.700000 1.800000 0.100000
0.800000 1.800000 0.100000
0.900000 1.800000 0.100000
1.000000 1.800000 0.100000
1.100000 1.800000 0.100000
1.200000 1.800000 0.100000
1.300000 1.800000 0.100000
1.400000 1.800000 0.100000
0.000000 1.900000 0.100000
0.100000 1.900000 0.100000
0.200000 1.900000 0.100000
0.300000 1.900000 0.100000
0.400000 1.900000 0.100000
0.500000 1.900000 0.100000
0.600000 1.900000 0.100000
0.700000 1.900000 0.100000
0.800000 1.900000 0.100000
0.900000 1.900000 0.100000
1.000000 1.900000 0.100000
1.100000 1.900000 0.100000
1.200000 1.900000 0.100000
1.300000 1.900000 0.100000
1.400000 1.900000 0.100000
0.000000 2.000000 0.100000
0.100000 2.000000 0.100000
0.200000 2.000000 0.100000
0.300000 2.000000 0.100000
0.400000 2.000000 0.100000
0.500000 2.000000 0.100000
0.600000 2.000000 0.100000
0.700000 2.000000 0.100000
0.800000 2.000000 0.100000
0.900000 2.000000 0.100000
1.000000 2.000000 0.100000
1.100000 2.000000 0.100000
1.200000 2.000000 0.100000
1.300000 2.000000 0.100000
1.400000 2.000000 0.100000
0.000000 1.000000 0.200000
0.100000 1.000000 0.200000
0.200000 1.000000 0.200000
0.300000 1.000000 0.200000
0.400000 1.000000 0.200000
0.500000 1.000000 0.200000
0.600000 1.000000 0.200000
0.700000 1.000000 0.200000
0.800000 1.000000 0.200000
0.900000 1.000000 0.200000
1.000000 1.000000 0.200000
1.100000 1.000000 0.200000
1.200000 1.000000 0.200000
1.300000 1.000000 0.200000
1.400000 1.000000 0.200000
0.000000 1.100000 0.200000
0.100000 1.100000 0.200000
0.200000 1.100000 0.200000
0.300000 1.100000 0.200000
0.400000 1.100000 0.200000
0.500000 1.100000 0.200000
0.600000 1.100000 0.200000
0.700000 1.100000 0.200000
0.800000 1.100000 0.200000
0.900000 1.100000 0.200000
1.000000 1.100000 0.200000
1.100000 1.100000 0.200000
1.200000 1.100000 0.200000
1.300000 1.100000 0.200000
1.400000 1.100000 0.200000
0.000000 1.200000 0.200000
0.100000 1.200000 0.200000
0.200000 1.200000 0.200000
0.300000 1.200000 0.200000
0.400000 1.200000 0.200000
[...]
CELL_DATA 2800
SCALARS pressure float 1
LOOKUP_TABLE default
62.0793
45.2915
37.7286
34.0227
31.9579
30.6138
29.5925
28.7057
27.8517
26.9665
26.0059
24.9428
23.7707
22.5049
61.4564
45.0082
37.5974
33.9605
31.9265
30.5948
29.5764
28.6877
27.8298
26.9408
25.9787
24.9176
23.7517
22.4955
60.22
44.4502
37.3423
33.842
31.8688
30.5614
29.5487
28.6563
27.7908
26.8946
25.9292
24.8715
23.7166
22.4776
58.3912
43.6371
36.9796
33.6807
31.7959
30.5232
29.5185
28.6207
27.7447
26.8382
25.8677
24.8135
23.6718
22.4543
56.0059
42.6012
36.5357
33.497
31.7237
30.4934
29.4975
28.5926
27.7033
26.784
25.8064
24.7544
23.6253
22.4297
53.122
41.3935
36.0498
33.3194
31.6728
30.4872
29.4982
28.5831
27.6776
26.7431
25.7562
24.7038
23.5845
22.4077
49.8369
40.0954
35.5801
33.1859
31.6667
30.5193
29.5303
28.5999
27.6747
26.7227
25.724
24.6682
23.5545
22.3911
46.3295
38.8421
35.2099
33.1417
31.7273
30.5989
29.5971
28.6438
27.6953
26.7236
25.7114
24.6494
23.5369
22.3811
42.9703
37.8617
35.0468
33.2247
31.8595
30.7176
29.6865
28.7039
27.7303
26.7396
25.7142
24.6449
23.5304
22.377
40.6214
37.5026
35.1639
33.4062
32.0093
30.8247
29.7587
28.7506
27.7596
26.7569
25.7236
24.6494
23.5322
22.3777
48.458
42.6476
37.8751
34.6756
32.5437
31.0301
29.8519
28.8406
27.8931
26.9425
25.9434
24.8676
23.7065
22.4707
48.114
42.4206
37.7426
34.6013
32.5016
31.0042
29.8326
28.8224
27.8735
26.9209
25.9211
24.8472
23.6911
22.4629
47.4347
41.975
37.4848
34.4587
32.4226
30.9568
29.798
28.7901
27.8383
26.8818
25.8804
24.8097
23.6625
22.448
46.4397
41.3297
37.1181
34.2614
32.3175
30.8972
29.7564
28.7517
27.796
26.8338
25.8298
24.7626
23.626
22.4285
45.1618
40.5159
36.6685
34.0296
32.2022
30.8378
29.7188
28.7174
27.7565
26.7874
25.7795
24.7148
23.5885
22.4082
43.6534
39.5815
36.1739
33.7912
32.0964
30.7931
29.6963
28.6971
27.7295
26.752
25.7386
24.6745
23.5563
22.3905
41.9993
38.6001
35.6881
33.5816
32.022
30.7766
29.6979
28.6977
27.7214
26.734
25.7134
24.6475
23.5338
22.3782
40.3447
37.6855
35.2838
33.4413
31.9992
30.797
29.7271
28.7209
27.7336
26.7352
25.7063
24.6364
23.5232
22.3724
38.9475
37.0115
35.052
33.4073
32.0366
30.8511
29.7769
28.7599
27.7611
26.7528
25.7163
24.6412
23.5252
22.3737
38.2519
36.8229
35.0822
33.4908
32.1161
30.9142
29.8254
28.7982
27.7929
26.7803
25.7401
24.661
23.5401
22.3827
41.1089
39.1918
36.627
34.372
32.5798
31.1578
29.9803
28.9434
27.9687
26.9976
25.9844
24.8979
23.7282
22.4896
40.9142
39.0357
36.5199
34.3036
32.5367
31.129
29.9581
28.9227
27.9467
26.9735
25.9595
24.8752
23.7112
22.4809
40.5329
38.7312
36.3126
34.1728
32.4556
31.0759
29.9177
28.8853
27.907
26.9298
25.9141
24.8335
23.6796
22.4638
39.983
38.2959
36.0206
33.9923
32.347
31.0074
29.8675
28.8397
27.8585
26.8761
25.8578
24.7812
23.6394
22.441
39.2938
37.7577
35.6674
33.7812
32.2259
30.9359
29.8184
28.7963
27.8121
26.8239
25.8023
24.729
23.5984
22.4175
38.5104
37.1577
35.2866
33.5644
32.1106
30.875
29.7814
28.7652
27.7777
26.7834
25.7578
24.6861
23.5641
22.3978
37.7
36.5549
34.9224
33.3725
32.0209
30.8377
29.7658
28.754
27.7626
26.7618
25.7312
24.6588
23.5415
22.3848
36.965
36.0315
34.6313
33.2397
31.9758
30.8338
29.7768
28.7662
27.7698
26.7625
25.7262
24.6507
23.5336
22.3803
36.4533
35.6962
34.4794
33.1991
31.9882
30.8661
29.813
28.7997
27.7982
26.7853
25.7437
24.6634
23.5422
22.3855
36.3305
35.6752
34.535
33.2765
32.0611
30.9281
29.866
28.8473
27.8429
26.828
25.7835
24.6982
23.5692
22.402
37.1423
36.5366
35.1919
33.7032
32.3202
31.0989
30.0164
29.027
28.0816
27.1321
26.1297
25.0329
23.8286
22.5589
37.0264
36.4334
35.1127
33.6469
32.2807
31.0693
29.9908
29.001
28.0522
27.0985
26.0941
25.0003
23.8052
22.5471
36.8022
36.234
34.9607
33.5398
32.2065
31.0146
29.9442
28.9538
27.999
27.0376
26.0288
24.9399
23.761
22.5225
36.486
35.9543
34.7497
33.3937
32.1078
30.9441
29.8858
28.8957
27.9337
26.9626
25.9479
24.8643
23.7048
22.4881
36.1041
35.6182
34.5003
33.2258
31.9987
30.87
29.8275
28.8391
27.8706
26.8899
25.8697
24.7907
23.648
22.4528
35.6936
35.2592
34.2402
33.0574
31.8958
30.8058
29.7809
28.7958
27.822
26.8333
25.808
24.7318
23.6013
22.4242
35.3053
34.9212
34.0034
32.9133
31.8165
30.7641
29.7562
28.7746
27.7968
26.8014
25.7712
24.6954
23.5715
22.406
35.0055
34.6575
33.8293
32.82
31.7773
30.7549
29.7599
28.7808
27.7998
26.7989
25.7637
24.6853
23.562
22.4001
34.8666
34.5258
33.7589
32.8023
31.7913
30.7841
29.7946
28.8157
27.8322
26.8275
25.7876
24.704
23.5753
22.4079
34.916
34.5718
33.8296
32.8816
31.8671
30.8531
29.8584
28.8772
27.8931
26.8876
25.8448
24.7545
23.6146
22.432
34.9088
34.7216
33.9834
32.9992
31.9606
30.956
30.0102
29.1158
28.248
27.3666
26.4115
25.306
24.0101
22.6905
34.8356
34.653
33.9265
32.9547
31.9255
30.9257
29.9799
29.081
28.205
27.314
26.3527
25.2515
23.9746
22.6737
34.6962
34.5224
33.8183
32.8706
31.8598
30.8699
29.9247
29.0179
28.127
27.2181
26.244
25.1492
23.9067
22.6351
34.5057
34.3435
33.6712
32.7579
31.7738
30.7986
29.8559
28.9401
28.0314
27.1002
26.1089
25.0198
23.8212
22.5749
34.2872
34.1368
33.5028
32.6316
31.6807
30.7247
29.7871
28.8642
27.9391
26.988
25.9828
24.8998
23.7343
22.514
34.0709
33.929
33.3351
32.5099
31.5955
30.6615
29.7316
28.8047
27.8675
26.9014
25.8867
24.8081
23.6637
22.467
33.8943
33.7509
33.1932
32.412
31.5332
30.6214
29.7005
28.7723
27.8272
26.851
25.8293
24.7522
23.6188
22.4381
33.7975
33.6348
33.1024
32.3569
31.5074
30.6139
29.7012
28.7736
27.824
26.8412
25.8138
24.7345
23.6032
22.4279
33.8083
33.6052
33.0842
32.3606
31.5286
30.6456
29.738
28.8116
27.8606
26.8745
25.8423
24.7572
23.6194
22.4371
33.8946
33.6651
33.1528
32.4356
31.6043
30.72
29.812
28.8869
27.9382
26.9528
25.9177
24.8241
23.6716
22.4689
33.5919
33.5218
33.075
32.3978
31.613
30.8
30.0005
29.2303
28.4858
27.7371
26.9066
25.8226
24.2474
22.9035
33.5424
33.4748
33.0336
32.3622
31.5811
30.768
29.9636
29.1827
28.4214
27.6517
26.8034
25.7228
24.1941
22.8811
33.45
33.3868
32.956
32.2958
31.5222
30.7096
29.8966
29.0964
28.3042
27.4944
26.6088
25.5299
24.0923
22.8226
33.3287
33.27
32.8532
32.2087
31.4462
30.6358
29.8134
28.9903
28.1604
27.2997
26.3613
25.2721
23.9803
22.7128
33.1988
33.1418
32.7401
32.1144
31.3662
30.5607
29.7309
28.8873
28.024
27.1212
26.1461
25.0603
23.8526
22.6035
33.0852
33.0233
32.6344
32.028
31.296
30.498
29.6648
28.8064
27.9189
26.9877
25.9919
24.912
23.7462
22.5243
33.0153
32.9361
32.554
31.9646
31.2485
30.4597
29.6268
28.7601
27.8575
26.909
25.9014
24.8244
23.6783
22.4778
33.0121
32.8981
32.5142
31.9369
31.2346
30.4549
29.625
28.7554
27.8452
26.8872
25.8719
24.7932
23.6523
22.4601
33.0786
32.9146
32.5238
31.9543
31.2617
30.4896
29.6642
28.7962
27.8848
26.9232
25.9026
24.8174
23.6695
22.4694
33.1611
32.9696
32.5831
32.0215
31.3344
30.5668
29.7465
28.8844
27.9787
27.02
25.9967
24.9014
23.7348
22.5087
32.7921
32.7407
32.4328
31.9365
31.3274
30.6686
30.0071
29.3761
28.7982
28.2777
27.7594
26.936
24.5444
23.1688
32.7559
32.7068
32.4014
31.907
31.2974
30.634
29.9619
29.3121
28.7042
28.1415
27.5756
26.7334
24.4561
23.1405
32.6896
32.6443
32.3435
31.8525
31.2423
30.5711
29.8802
29.196
28.5322
27.8865
27.2189
26.3312
24.2383
23.0689
32.6066
32.5644
32.269
31.7827
31.1724
30.4923
29.7792
29.0535
28.3205
27.5648
26.732
25.677
24.1267
22.8992
32.525
32.4823
32.1909
31.7097
31.1008
30.4134
29.68
28.9168
28.1245
27.2859
26.3592
25.275
23.9843
22.7164
32.4658
32.4147
32.1236
31.6468
31.0405
30.3489
29.6009
28.8101
27.9766
27.0875
26.1173
25.0365
23.839
22.5907
32.4494
32.3772
32.0801
31.6058
31.003
30.3109
29.5549
28.7473
27.8891
26.9719
25.9814
24.9047
23.7431
22.5206
32.4881
32.3785
32.069
31.5953
30.997
30.3077
29.55
28.7354
27.8652
26.9339
25.9326
24.8549
23.7035
22.4929
32.5722
32.414
32.0916
31.6197
31.0276
30.3444
29.591
28.778
27.9064
26.9708
25.963
24.8784
23.72
22.501
32.6418
32.46
32.1413
31.6793
31.097
30.4234
29.6801
28.8777
28.0155
27.0852
26.0755
24.9789
23.7979
22.5472
32.3068
32.2457
32.0035
31.612
31.1188
30.575
30.0302
29.5343
29.1453
28.9465
29.097
29.8256
0.0
0.0
32.2778
32.2193
31.9783
31.5861
31.0893
30.5372
29.9766
29.4529
29.0176
28.7458
28.7867
29.3627
0.0
0.0
32.2259
32.1716
31.9323
31.5388
31.0357
30.4687
29.8794
29.3048
28.7825
28.3641
28.1719
28.4601
0.0
0.0
32.1637
32.1129
31.8746
31.4793
30.9686
30.3837
29.7598
29.1232
28.491
27.8647
27.2073
26.322
24.2216
23.0521
32.1079
32.0567
31.8173
31.4193
30.9011
30.2994
29.6432
28.9511
28.2283
27.4602
26.5974
25.528
24.0913
22.8215
32.077
32.0172
31.7723
31.3705
30.8462
30.2315
29.5507
28.8178
28.0346
27.1877
26.2459
25.1648
23.9251
22.6518
32.0868
32.0057
31.7495
31.3427
30.8145
30.1921
29.4963
28.7384
27.9199
27.0322
26.0587
24.9822
23.8032
22.5591
32.1432
32.0259
31.7535
31.3419
30.813
30.1892
29.4879
28.7189
27.8837
26.9768
25.9885
24.9117
23.75
22.5218
32.2302
32.0681
31.7816
31.3695
30.8453
30.2271
29.53
28.7625
27.9254
27.013
26.0173
24.9332
23.7651
22.5284
32.2879
32.1064
31.8239
31.4233
30.9121
30.3075
29.6249
28.8721
28.0478
27.143
26.1458
25.0483
23.8539
22.5801
32.0292
31.9546
31.7427
31.4085
30.9855
30.5178
30.0571
29.6649
29.4228
29.4536
29.9602
31.2874
0.0
0.0
32.0039
31.9323
31.7208
31.3846
30.956
30.4773
29.9965
29.5692
29.268
29.2026
29.5611
30.6663
0.0
0.0
31.9594
31.8925
31.6813
31.3411
30.9025
30.4039
29.8867
29.3953
28.9822
28.724
28.7703
29.3389
0.0
0.0
31.9077
31.845
31.6329
31.2871
30.8361
30.3132
29.7519
29.1822
28.6282
28.099
27.5506
26.7112
24.4233
23.1115
31.865
31.8024
31.5867
31.2341
30.7702
30.2238
29.621
28.9813
28.3122
27.599
26.7817
25.714
24.1867
22.8751
31.848
31.7773
31.5536
31.1928
30.7177
30.1523
29.5176
28.8267
28.0815
27.2674
26.3472
25.2642
23.9917
22.6898
31.8697
31.7786
31.5415
31.172
30.6886
30.1111
29.4562
28.7337
27.9448
27.0797
26.1192
25.0422
23.8489
22.5856
31.9329
31.8072
31.5529
31.1761
30.6893
30.1078
29.4447
28.7081
27.8985
27.0099
26.0316
24.9553
23.7851
22.5426
32.0184
31.8512
31.5829
31.205
30.7225
30.1463
29.4875
28.7522
27.9401
27.0452
26.0585
24.9748
23.7989
22.5484
32.0676
31.8845
31.6205
31.2551
30.7877
30.228
29.5867
28.8691
28.0725
27.1868
26.1991
25.1009
23.896
22.6041
31.9029
31.8202
31.6202
31.3115
30.9216
30.4916
30.0745
29.7376
29.5735
29.7201
30.3938
31.9389
0.0
0.0
31.8792
31.7996
31.5997
31.2883
30.8919
30.4495
30.01
29.6342
29.4041
29.4428
29.9502
31.2461
0.0
0.0
31.8377
31.7632
31.563
31.2464
30.8382
30.3733
29.8933
29.446
29.091
28.9139
29.0726
29.7785
0.0
0.0
31.7905
31.7205
31.5186
31.1948
30.7717
30.2792
29.75
29.2157
28.7036
28.2248
27.7284
26.9061
24.4887
23.125
31.7531
31.6837
31.4773
31.1446
30.7061
30.1867
29.6112
28.9991
28.3587
27.6746
26.8802
25.8111
24.236
22.8944
31.7417
31.6646
31.4492
31.1066
30.6543
30.1131
29.5016
28.8326
28.1077
27.3113
26.4024
25.3176
24.0269
22.7067
31.768
31.671
31.4415
31.0886
30.6262
30.0706
29.4362
28.7321
27.9588
27.1059
26.1523
25.0749
23.8734
22.5987
31.8333
31.7028
31.4557
31.0946
30.6278
30.0669
29.423
28.703
27.9069
27.0281
26.0551
24.979
23.8041
22.5535
31.9171
31.747
31.4862
31.1239
30.6611
30.1056
29.466
28.7473
27.9484
27.0627
26.0809
24.9973
23.8172
22.5591
31.9622
31.7777
31.5216
31.1723
30.7256
30.188
29.5676
28.8681
28.0861
27.2107
26.2281
25.1294
23.9187
22.6169
31.903
31.8203
31.6203
31.3116
30.9217
30.4918
30.0747
29.7378
29.5738
29.7203
30.3936
31.9373
0.0
0.0
31.8794
31.7998
31.5999
31.2885
30.8921
30.4497
30.0102
29.6345
29.4047
29.4438
29.9522
31.2505
0.0
0.0
31.8379
31.7634
31.5632
31.2466
30.8384
30.3735
29.8936
29.4465
29.0917
28.9153
29.0757
29.7865
0.0
0.0
31.7907
31.7207
31.5188
31.195
30.7719
30.2794
29.7503
29.2161
28.7043
28.2259
27.7304
26.9092
24.4902
23.1257
31.7533
31.6839
31.4775
31.1448
30.7063
30.187
29.6115
28.9995
28.3593
27.6754
26.8813
25.8125
24.237
22.8951
31.7419
31.6648
31.4494
31.1067
30.6545
30.1133
29.5018
28.8329
28.1082
27.3119
26.4031
25.3184
24.0277
22.7073
31.7682
31.6712
31.4417
31.0888
30.6265
30.0708
29.4365
28.7324
27.9592
27.1063
26.1529
25.0755
23.874
22.5993
31.8335
31.703
31.4559
31.0948
30.628
30.0671
29.4233
28.7033
27.9073
27.0285
26.0556
24.9795
23.8046
22.554
31.9173
31.7471
31.4864
31.1241
30.6613
30.1058
29.4662
28.7476
27.9488
27.0631
26.0813
24.9978
23.8177
22.5595
31.9623
31.7779
31.5218
31.1725
30.7258
30.1883
29.5679
28.8685
28.0865
27.2112
26.2287
25.1299
23.9192
22.6174
32.0297
31.9551
31.7431
31.409
30.986
30.5184
30.0578
29.6657
29.4238
29.4545
29.9601
31.2838
0.0
0.0
32.0044
31.9328
31.7213
31.385
30.9566
30.478
29.9973
29.5703
29.2697
29.2054
29.5663
30.6776
0.0
0.0
31.9599
31.893
31.6817
31.3416
30.9031
30.4046
29.8876
29.3965
28.9842
28.7278
28.7786
29.3603
0.0
0.0
31.9083
31.8455
31.6334
31.2877
30.8367
30.3139
29.7528
29.1834
28.63
28.1021
27.5559
26.7195
24.4283
23.1143
31.8656
31.803
31.5872
31.2346
30.7708
30.2245
29.6219
28.9824
28.3137
27.6012
26.7849
25.718
24.1899
22.8775
31.8486
31.7778
31.5541
31.1934
30.7183
30.153
29.5184
28.8277
28.0827
27.269
26.3493
25.2665
23.9939
22.6917
31.8703
31.7792
31.542
31.1725
30.6892
30.1118
29.4569
28.7346
27.9458
27.081
26.1207
25.0439
23.8506
22.5872
31.9335
31.8078
31.5534
31.1766
30.69
30.1085
29.4455
28.7089
27.8995
27.0111
26.0329
24.9567
23.7866
22.544
32.019
31.8518
31.5834
31.2056
30.7231
30.147
29.4882
28.7531
27.9412
27.0463
26.0598
24.9762
23.8003
22.5498
32.0682
31.8851
31.6211
31.2557
30.7883
30.2287
29.5875
28.87
28.0736
27.1881
26.2006
25.1024
23.8976
22.6057
32.3076
32.2465
32.0043
31.6127
31.1196
30.5759
30.0313
29.5357
29.1469
28.9482
29.0978
29.8217
0.0
0.0
32.2787
32.2201
31.9791
31.5869
31.0902
30.5382
29.9778
29.4545
29.0201
28.7496
28.7934
29.3758
0.0
0.0
32.2268
32.1724
31.9331
31.5396
31.0366
30.4698
29.8807
29.3067
28.7853
28.3691
28.1823
28.4865
0.0
0.0
32.1646
32.1137
31.8755
31.4802
30.9695
30.3848
29.7611
29.1251
28.4936
27.8689
27.2142
26.3328
24.2297
23.0579
32.1089
32.0575
31.8181
31.4201
30.902
30.3005
29.6445
28.9527
28.2305
27.4633
26.6017
25.5335
24.0962
22.8254
32.078
32.0181
31.7731
31.3714
30.8472
30.2326
29.552
28.8194
28.0365
27.19
26.2489
25.1682
23.9285
22.6548
32.0877
32.0066
31.7503
31.3436
30.8154
30.1932
29.4975
28.7398
27.9216
27.0342
26.061
24.9847
23.8058
22.5615
32.1442
32.0268
31.7544
31.3428
30.814
30.1903
29.4891
28.7203
27.8854
26.9786
25.9906
24.914
23.7523
22.524
32.2312
32.069
31.7825
31.3705
30.8463
30.2282
29.5312
28.764
27.927
27.0149
26.0193
24.9354
23.7673
22.5307
32.2888
32.1074
31.8248
31.4242
30.9131
30.3087
29.6262
28.8736
28.0495
27.145
26.1481
25.0508
23.8565
22.5826
32.7932
32.7417
32.4337
31.9375
31.3285
30.6698
30.0085
29.3779
28.8005
28.2805
27.7627
26.9402
24.5533
23.1797
32.757
32.7078
32.4024
31.908
31.2985
30.6353
29.9635
29.3141
28.7071
28.1457
27.582
26.7433
24.4709
23.1548
32.6908
32.6453
32.3446
31.8536
31.2435
30.5725
29.8819
29.1982
28.5354
27.8914
27.2269
26.3448
24.2571
23.0848
32.6078
32.5655
32.27
31.7838
31.1737
30.4938
29.7809
29.0557
28.3235
27.5691
26.7383
25.6858
24.1361
22.9075
32.5262
32.4834
32.192
31.7109
31.102
30.4148
29.6817
28.9189
28.1271
27.2893
26.3638
25.2807
23.9901
22.7216
32.4671
32.4159
32.1247
31.648
31.0417
30.3504
29.6026
28.8121
27.9789
27.0903
26.1208
25.0404
23.8431
22.5945
32.4507
32.3784
32.0813
31.607
31.0043
30.3123
29.5565
28.7492
27.8913
26.9744
25.9843
24.9079
23.7464
22.5237
32.4895
32.3797
32.0702
31.5965
30.9983
30.3091
29.5516
28.7372
27.8673
26.9363
25.9352
24.8577
23.7064
22.4957
32.5735
32.4153
32.0928
31.621
31.029
30.3458
29.5926
28.7799
27.9085
26.9731
25.9656
24.8812
23.7229
22.5039
32.6432
32.4613
32.1426
31.6806
31.0984
30.4249
29.6819
28.8797
28.0178
27.0878
26.0783
24.982
23.8012
22.5503
33.5932
33.5229
33.0762
32.399
31.6143
30.8014
30.0022
29.2324
28.4885
27.7405
26.9108
25.8281
24.2551
22.9118
33.5438
33.476
33.0349
32.3635
31.5825
30.7696
29.9654
29.185
28.4245
27.6558
26.809
25.7302
24.2035
22.8906
33.4514
33.388
32.9573
32.2971
31.5236
30.7113
29.8985
29.0989
28.3074
27.4988
26.615
25.5383
24.1025
22.8322
33.3301
33.2713
32.8545
32.2101
31.4477
30.6375
29.8154
28.9928
28.1635
27.3038
26.3667
25.2789
23.9878
22.7198
33.2002
33.1432
32.7414
32.1158
31.3677
30.5624
29.7329
28.8897
28.0268
27.1247
26.1505
25.0655
23.858
22.6088
33.0867
33.0247
32.6358
32.0294
31.2975
30.4997
29.6667
28.8087
27.9215
26.9908
25.9955
24.9161
23.7505
22.5284
33.0168
32.9376
32.5555
31.966
31.2501
30.4614
29.6287
28.7623
27.8599
26.9118
25.9046
24.8278
23.6819
22.4813
33.0137
32.8996
32.5157
31.9384
31.2361
30.4567
29.627
28.7576
27.8476
26.8899
25.8749
24.7963
23.6556
22.4633
33.0802
32.9162
32.5253
31.9558
31.2633
30.4914
29.6662
28.7984
27.8873
26.9259
25.9056
24.8206
23.6728
22.4726
33.1628
32.9712
32.5847
32.0231
31.3361
30.5686
29.7485
28.8867
27.9813
27.0229
26
24.9049
23.7384
22.5123
34.9102
34.7229
33.9848
33.0006
31.9621
30.9576
30.0121
29.1181
28.2509
27.3701
26.4158
25.3112
24.0163
22.697
34.837
34.6544
33.9279
32.9561
31.927
30.9274
29.9819
29.0835
28.2081
27.318
26.3576
25.2575
23.9814
22.6805
34.6977
34.5238
33.8197
32.8721
31.8615
30.8717
29.9269
29.0205
28.1303
27.2222
26.2491
25.1554
23.9135
22.6418
34.5073
34.3449
33.6727
32.7594
31.7755
30.8005
29.858
28.9427
28.0345
27.104
26.1136
25.0253
23.8272
22.5807
34.2888
34.1384
33.5043
32.6332
31.6824
30.7266
29.7892
28.8667
27.942
26.9915
25.987
24.9045
23.7393
22.5189
34.0726
33.9306
33.3367
32.5115
31.5972
30.6635
29.7338
28.8071
27.8703
26.9047
25.8904
24.8122
23.6679
22.4711
33.896
33.7526
33.1949
32.4137
31.535
30.6233
29.7027
28.7747
27.8299
26.854
25.8326
24.7558
23.6225
22.4418
33.7993
33.6366
33.1041
32.3586
31.5092
30.6158
29.7034
28.776
27.8267
26.8441
25.817
24.7379
23.6068
22.4314
33.8102
33.607
33.0859
32.3624
31.5305
30.6476
29.7402
28.814
27.8633
26.8775
25.8455
24.7607
23.623
22.4406
33.8965
33.667
33.1546
32.4374
31.6062
30.722
29.8142
28.8895
27.941
26.956
25.9212
24.8279
23.6754
22.4728
37.1438
36.538
35.1933
33.7046
32.3217
31.1006
30.0184
29.0294
28.0846
27.1356
26.1339
25.0377
23.8339
22.5643
37.028
36.4348
35.1142
33.6484
32.2823
31.0711
29.993
29.0035
28.0553
27.1023
26.0985
25.0054
23.8108
22.5526
36.8037
36.2355
34.9622
33.5414
32.2082
31.0165
29.9464
28.9564
28.0022
27.0414
26.0333
24.9451
23.7666
22.528
36.4877
35.9558
34.7512
33.3954
32.1096
30.946
29.8881
28.8983
27.9369
26.9663
25.9523
24.8692
23.7099
22.4932
36.1059
35.6198
34.5019
33.2275
32.0005
30.8721
29.8298
28.8418
27.8736
26.8934
25.8737
24.7951
23.6526
22.4573
35.6954
35.2609
34.2419
33.0591
31.8976
30.8079
29.7832
28.7984
27.8249
26.8365
25.8116
24.7358
23.6055
22.4282
35.3072
34.923
34.0052
32.9151
31.8184
30.7662
29.7585
28.7772
27.7996
26.8046
25.7747
24.699
23.5753
22.4098
35.0074
34.6594
33.8311
32.8218
31.7793
30.757
29.7622
28.7834
27.8026
26.802
25.7671
24.6888
23.5657
22.4037
34.8687
34.5278
33.7608
32.8042
31.7933
30.7862
29.7969
28.8182
27.835
26.8306
25.791
24.7076
23.579
22.4116
34.9181
34.5739
33.8316
32.8835
31.8691
30.8553
29.8608
28.8798
27.896
26.8909
25.8484
24.7583
23.6186
22.436
41.1103
39.1932
36.6284
34.3734
32.5813
31.1595
29.9824
28.9459
27.9717
27.0011
25.9885
24.9025
23.7332
22.4947
40.9157
39.0371
36.5213
34.3051
32.5384
31.1309
29.9603
28.9253
27.9498
26.9772
25.9638
24.88
23.7164
22.486
40.5345
38.7328
36.3142
34.1744
32.4574
31.0778
29.92
28.8879
27.9101
26.9336
25.9184
24.8383
23.6847
22.4689
39.9846
38.2975
36.0222
33.994
32.3488
31.0095
29.8699
28.8423
27.8616
26.8798
25.862
24.7858
23.6442
22.4459
39.2956
37.7594
35.6691
33.783
32.2278
30.938
29.8208
28.7989
27.8151
26.8274
25.8062
24.7333
23.6029
22.422
38.5122
37.1595
35.2883
33.5663
32.1125
30.8771
29.7838
28.7678
27.7807
26.7867
25.7615
24.69
23.5682
22.4019
37.7019
36.5568
34.9242
33.3744
32.0229
30.8399
29.7682
28.7567
27.7655
26.765
25.7347
24.6626
23.5454
22.3887
36.967
36.0334
34.6332
33.2416
31.9778
30.836
29.7791
28.7688
27.7727
26.7656
25.7296
24.6543
23.5374
22.384
36.4555
35.6983
34.4813
33.2011
31.9902
30.8683
29.8154
28.8023
27.8011
26.7885
25.7471
24.6671
23.546
22.3892
36.3327
35.6774
34.537
33.2785
32.0631
30.9303
29.8684
28.85
27.846
26.8313
25.7871
24.702
23.5731
22.4059
48.4593
42.6488
37.8764
34.677
32.5452
31.0319
29.8539
28.8431
27.8961
26.9462
25.9477
24.8724
23.7117
22.4759
48.1155
42.4219
37.7439
34.6027
32.5032
31.0061
29.8347
28.825
27.8766
26.9247
25.9255
24.8521
23.6963