# vtk DataFile Version 2.0
I need something to put here
ASCII

DATASET STRUCTURED_GRID
DIMENSIONS 41 11 21
POINTS 9471 float
0.000000 0.000000 0.000000
0.100000 0.000000 0.000000
0.200000 0.000000 0.000000
0.300000 0.000000 0.000000
0.400000 0.000000 0.000000
0.500000 0.000000 0.000000
0.600000 0.000000 0.000000
0.700000 0.000000 0.000000
0.800000 0.000000 0.000000
0.900000 0.000000 0.000000
1.000000 0.000000 0.000000
1.100000 0.000000 0.000000
1.200000 0.000000 0.000000
1.300000 0.000000 0.000000
1.400000 0.000000 0.000000
1.500000 0.000000 0.000000
1.600000 0.000000 0.000000
1.700000 0.000000 0.000000
1.800000 0.000000 0.000000
1.900000 0.000000 0.000000
2.000000 0.000000 0.000000
2.100000 0.000000 0.000000
2.200000 0.000000 0.000000
2.300000 0.000000 0.000000
2.400000 0.000000 0.000000
2.500000 0.000000 0.000000
2.600000 0.000000 0.000000
2.700000 0.000000 0.000000
2.800000 0.000000 0.000000
2.900000 0.000000 0.000000
3.000000 0.000000 0.000000
3.100000 0.000000 0.000000
3.200000 0.000000 0.000000
3.300000 0.000000 0.000000
3.400000 0.000000 0.000000
3.500000 0.000000 0.000000
3.600000 0.000000 0.000000
3.700000 0.000000 0.000000
3.800000 0.000000 0.000000
3.900000 0.000000 0.000000
4.000000 0.000000 0.000000
0.000000 0.100000 0.000000
0.100000 0.100000 0.000000
0.200000 0.100000 0.000000
0.300000 0.100000 0.000000
0.400000 0.100000 0.000000
0.500000 0.100000 0.000000
0.600000 0.100000 0.000000
0.700000 0.100000 0.000000
0.800000 0.100000 0.000000
0.900000 0.100000 0.000000
1.000000 0.100000 0.000000
1.100000 0.100000 0.000000
1.200000 0.100000 0.000000
1.300000 0.100000 0.000000
1.400000 0.100000 0.000000
1.500000 0.100000 0.000000
1.600000 0.100000 0.000000
1.700000 0.100000 0.000000
1.800000 0.100000 0.000000
1.900000 0.100000 0.000000
2.000000 0.100000 0.000000
2.100000 0.100000 0.000000
2.200000 0.100000 0.000000
2.300000 0.100000 0.000000
2.400000 0.100000 0.000000
2.500000 0.100000 0.000000
2.600000 0.100000 0.000000
2.700000 0.100000 0.000000
2.800000 0.100000 0.000000
2.900000 0.100000 0.000000
3.000000 0.100000 0.000000
3.100000 0.100000 0.000000
3.200000 0.100000 0.000000
3.300000 0.100000 0.000000
3.400000 0.100000 0.000000
3.500000 0.100000 0.000000
3.600000 0.100000 0.000000
3.700000 0.100000 0.000000
3.800000 0.100000 0.000000
3.900000 0.100000 0.000000
4.000000 0.100000 0.000000
0.000000 0.200000 0.000000
0.100000 0.200000 0.000000
0.200000 0.200000 0.000000
0.300000 0.200000 0.000000
0.400000 0.200000 0.000000
0.500000 0.200000 0.000000
0.600000 0.200000 0.000000
0.700000 0.200000 0.000000
0.800000 0.200000 0.000000
0.900000 0.200000 0.000000
1.000000 0.200000 0.000000
1.100000 0.200000 0.000000
1.200000 0.200000 0.000000
1.300000 0.200000 0.000000
1.400000 0.200000 0.000000
1.500000 0.200000 0.000000
1.600000 0.200000 0.000000
1.700000 0.200000 0.000000
1.800000 0.200000 0.000000
1.900000 0.200000 0.000000
2.000000 0.200000 0.000000
2.100000 0.200000 0.000000
2.200000 0.200000 0.000000
2.300000 0.200000 0.000000
2.400000 0.200000 0.000000
2.500000 0.200000 0.000000
2.600000 0.200000 0.000000
2.700000 0.200000 0.000000
2.800000 0.200000 0.000000
2.900000 0.200000 0.000000
3.000000 0.200000 0.000000
3.100000 0.200000 0.000000
3.200000 0.200000 0.000000
3.300000 0.200000 0.000000
3.400000 0.200000 0.000000
3.500000 0.200000 0.000000
3.600000 0.200000 0.000000
3.700000 0.200000 0.000000
3.800000 0.200000 0.000000
3.900000 0.200000 0.000000
4.000000 0.200000 0.000000
0.000000 0.300000 0.000000
0.100000 0.300000 0.000000
0.200000 0.300000 0.000000
0.300000 0.300000 0.000000
0.400000 0.300000 0.000000
0.500000 0.300000 0.000000
0.600000 0.300000 0.000000
0.700000 0.300000 0.000000
0.800000 0.300000 0.000000
0.900000 0.300000 0.000000
1.000000 0.300000 0.000000
1.100000 0.300000 0.000000
1.200000 0.300000 0.000000
1.300000 0.300000 0.000000
1.400000 0.300000 0.000000
1.500000 0.300000 0.000000
1.600000 0.300000 0.000000
1.700000 0.300000 0.000000
1.800000 0.300000 0.000000
1.900000 0.300000 0.000000
2.000000 0.300000 0.000000
2.100000 0.300000 0.000000
2.200000 0.300000 0.000000
2.300000 0.300000 0.000000
2.400000 0.300000 0.000000
2.500000 0.300000 0.000000
2.600000 0.300000 0.000000
2.700000 0.300000 0.000000
2.800000 0.300000 0.000000
2.900000 0.300000 0.000000
3.000000 0.300000 0.000000
3.100000 0.300000 0.000000
3.200000 0.300000 0.000000
3.300000 0.300000 0.000000
3.400000 0.300000 0.000000
3.500000 0.300000 0.000000
3.600000 0.300000 0.000000
3.700000 0.300000 0.000000
3.800000 0.300000 0.000000
3.900000 0.300000 0.000000
4.000000 0.300000 0.000000
0.000000 0.400000 0.000000
0.100000 0.400000 0.000000
0.200000 0.400000 0.000000
0.300000 0.400000 0.000000
0.400000 0.400000 0.000000
0.500000 0.400000 0.000000
0.600000 0.400000 0.000000
0.700000 0.400000 0.000000
0.800000 0.400000 0.000000
0.900000 0.400000 0.000000
1.000000 0.400000 0.000000
1.100000 0.400000 0.000000
1.200000 0.400000 0.000000
1.300000 0.400000 0.000000
1.400000 0.400000 0.000000
1.500000 0.400000 0.000000
1.600000 0.400000 0.000000
1.700000 0.400000 0.000000
1.800000 0.400000 0.000000
1.900000 0.400000 0.000000
2.000000 0.400000 0.000000
2.100000 0.400000 0.000000
2.200000 0.400000 0.000000
2.300000 0.400000 0.000000
2.400000 0.400000 0.000000
2.500000 0.400000 0.000000
2.600000 0.400000 0.000000
2.700000 0.400000 0.000000
2.800000 0.400000 0.000000
2.900000 0.400000 0.000000
3.000000 0.400000 0.000000
3.100000 0.400000 0.000000
3.200000 0.400000 0.000000
3.300000 0.400000 0.000000
3.400000 0.400000 0.000000
3.500000 0.400000 0.000000
3.600000 0.400000 0.000000
3.700000 0.400000 0.000000
3.800000 0.400000 0.000000
3.900000 0.400000 0.000000
4.000000 0.400000 0.000000
0.000000 0.500000 0.000000
0.100000 0.500000 0.000000
0.200000 0.500000 0.000000
0.300000 0.500000 0.000000
0.400000 0.500000 0.000000
0.500000 0.500000 0.000000
0.600000 0.500000 0.000000
0.700000 0.500000 0.000000
0.800000 0.500000 0.000000
0.900000 0.500000 0.000000
1.000000 0.500000 0.000000
1.100000 0.500000 0.000000
1.200000 0.500000 0.000000
1.300000 0.500000 0.000000
1.400000 0.500000 0.000000
1.500000 0.500000 0.000000
1.600000 0.500000 0.000000
1.700000 0.500000 0.000000
1.800000 0.500000 0.000000
1.900000 0.500000 0.000000
2.000000 0.500000 0.000000
2.100000 0.500000 0.000000
2.200000 0.500000 0.000000
2.300000 0.500000 0.000000
2.400000 0.500000 0.000000
2.500000 0.500000 0.000000
2.600000 0.500000 0.000000
2.700000 0.500000 0.000000
2.800000 0.500000 0.000000
2.900000 0.500000 0.000000
3.000000 0.500000 0.000000
3.100000 0.500000 0.000000
3.200000 0.500000 0.000000
3.300000 0.500000 0.000000
3.400000 0.500000 0.000000
3.500000 0.500000 0.000000
3.600000 0.500000 0.000000
3.700000 0.500000 0.000000
3.800000 0.500000 0.000000
3.900000 0.500000 0.000000
4.000000 0.500000 0.000000
0.000000 0.600000 0.000000
0.100000 0.600000 0.000000
0.200000 0.600000 0.000000
0.300000 0.600000 0.000000
0.400000 0.600000 0.000000
0.500000 0.600000 0.000000
0.600000 0.600000 0.000000
0.700000 0.600000 0.000000
0.800000 0.600000 0.000000
0.900000 0.600000 0.000000
1.000000 0.600000 0.000000
1.100000 0.600000 0.000000
1.200000 0.600000 0.000000
1.300000 0.600000 0.000000
1.400000 0.600000 0.000000
1.500000 0.600000 0.000000
1.600000 0.600000 0.000000
1.700000 0.600000 0.000000
1.800000 0.600000 0.000000
1.900000 0.600000 0.000000
2.000000 0.600000 0.000000
2.100000 0.600000 0.000000
2.200000 0.600000 0.000000
2.300000 0.600000 0.000000
2.400000 0.600000 0.000000
2.500000 0.600000 0.000000
2.600000 0.600000 0.000000
2.700000 0.600000 0.000000
2.800000 0.600000 0.000000
2.900000 0.600000 0.000000
3.000000 0.600000 0.000000
3.100000 0.600000 0.000000
3.200000 0.600000 0.000000
3.300000 0.600000 0.000000
3.400000 0.600000 0.000000
3.500000 0.600000 0.000000
3.600000 0.600000 0.000000
3.700000 0.600000 0.000000
3.800000 0.600000 0.000000
3.900000 0.600000 0.000000
4.000000 0.600000 0.000000
0.000000 0.700000 0.000000
0.100000 0.700000 0.000000
0.200000 0.700000 0.000000
0.300000 0.700000 0.000000
0.400000 0.700000 0.000000
0.500000 0.700000 0.000000
0.600000 0.700000 0.000000
0.700000 0.700000 0.000000
0.800000 0.700000 0.000000
0.900000 0.700000 0.000000
1.000000 0.700000 0.000000
1.100000 0.700000 0.000000
1.200000 0.700000 0.000000
1.300000 0.700000 0.000000
1.400000 0.700000 0.000000
1.500000 0.700000 0.000000
1.600000 0.700000 0.000000
1.700000 0.700000 0.000000
1.800000 0.700000 0.000000
1.900000 0.700000 0.000000
2.000000 0.700000 0.000000
2.100000 0.700000 0.000000
2.200000 0.700000 0.000000
2.300000 0.700000 0.000000
2.400000 0.700000 0.000000
2.500000 0.700000 0.000000
2.600000 0.700000 0.000000
2.700000 0.700000 0.000000
2.800000 0.700000 0.000000
2.900000 0.700000 0.000000
3.000000 0.700000 0.000000
3.100000 0.700000 0.000000
3.200000 0.700000 0.000000
3.300000 0.700000 0.000000
3.400000 0.700000 0.000000
3.500000 0.700000 0.000000
3.600000 0.700000 0.000000
3.700000 0.700000 0.000000
3.800000 0.700000 0.000000
3.900000 0.700000 0.000000
4.000000 0.700000 0.000000
0.000000 0.800000 0.000000
0.100000 0.800000 0.000000
0.200000 0.800000 0.000000
0.300000 0.800000 0.000000
0.400000 0.800000 0.000000
0.500000 0.800000 0.000000
0.600000 0.800000 0.000000
0.700000 0.800000 0.000000
0.800000 0.800000 0.000000
0.900000 0.800000 0.000000
1.000000 0.800000 0.000000
1.100000 0.800000 0.000000
1.200000 0.800000 0.000000
1.300000 0.800000 0.000000
1.400000 0.800000 0.000000
1.500000 0.800000 0.000000
1.600000 0.800000 0.000000
1.700000 0.800000 0.000000
1.800000 0.800000 0.000000
1.900000 0.800000 0.000000
2.000000 0.800000 0.000000
2.100000 0.800000 0.000000
2.200000 0.800000 0.000000
2.300000 0.800000 0.000000
2.400000 0.800000 0.000000
2.500000 0.800000 0.000000
2.600000 0.800000 0.000000
2.700000 0.800000 0.000000
2.800000 0.800000 0.000000
2.900000 0.800000 0.000000
3.000000 0.800000 0.000000
3.100000 0.800000 0.000000
3.200000 0.800000 0.000000
3.300000 0.800000 0.000000
3.400000 0.800000 0.000000
3.500000 0.800000 0.000000
3.600000 0.800000 0.000000
[...]
CELL_DATA 8000
SCALARS pressure float 1
LOOKUP_TABLE default
-22.491
-20.9047
-19.7271
-18.8441
-18.1354
-17.5207
-16.9504
-16.3929
-15.8275
-15.2412
-14.6262
-13.9804
-13.3058
-12.6088
-11.8984
-11.1857
-10.4821
-9.79878
-9.14489
-8.52703
-7.9484
-7.40882
-6.90534
-6.43317
-5.98677
-5.56059
-5.14966
-4.74984
-4.35787
-3.97128
-3.58829
-3.20766
-2.82855
-2.45038
-2.0728
-1.69557
-1.31855
-0.941658
-0.56487
-0.188201
-23.6765
-21.0797
-19.6658
-18.7531
-18.0612
-17.4681
-16.9151
-16.3699
-15.813
-15.2323
-14.6211
-13.9775
-13.3042
-12.6078
-11.8976
-11.1847
-10.481
-9.79743
-9.14343
-8.52563
-7.94722
-7.40798
-6.90487
-6.43304
-5.98689
-5.56088
-5.15003
-4.75024
-4.35824
-3.9716
-3.58856
-3.20789
-2.82872
-2.45052
-2.07291
-1.69565
-1.31861
-0.941697
-0.56489
-0.188195
-25.3671
-21.5684
-19.7512
-18.721
-18.0074
-17.422
-16.8834
-16.3521
-15.8064
-15.2336
-14.6271
-13.9852
-13.311
-12.6117
-11.8974
-11.18
-10.4716
-9.78405
-9.12723
-8.50815
-7.93003
-7.39235
-6.89156
-6.42234
-5.97871
-5.55488
-5.14581
-4.74736
-4.35634
-3.9704
-3.58782
-3.20745
-2.82848
-2.45039
-2.07284
-1.69562
-1.3186
-0.941692
-0.564876
-0.188169
-27.1283
-22.196
-19.9468
-18.7613
-17.9993
-17.4058
-16.8734
-16.3524
-15.8165
-15.2511
-14.6484
-14.0062
-13.3281
-12.622
-11.8992
-11.1724
-10.4549
-9.75956
-9.09715
-8.4754
-7.89759
-7.3626
-6.86601
-6.40156
-5.96258
-5.54285
-5.13714
-4.7413
-4.35222
-3.96765
-3.58604
-3.20631
-2.82777
-2.44996
-2.07259
-1.69547
-1.31851
-0.94164
-0.56484
-0.188143
-28.7762
-22.8479
-20.1969
-18.8524
-18.0313
-17.4204
-16.8881
-16.3737
-15.8456
-15.2862
-14.6857
-14.041
-13.3558
-12.639
-11.9034
-11.1629
-10.4322
-9.72531
-9.05466
-8.42891
-7.8514
-7.32019
-6.8295
-6.37179
-5.93936
-5.52543
-5.12448
-4.73235
-4.34605
-3.96349
-3.58328
-3.20451
-2.82662
-2.44923
-2.07213
-1.6952
-1.31834
-0.941541
-0.564784
-0.188122
-30.2227
-23.4562
-20.4575
-18.9685
-18.0889
-17.4577
-16.9223
-16.4121
-15.8904
-15.3359
-14.7362
-14.087
-13.3921
-12.6616
-11.9099
-11.1524
-10.4052
-9.68405
-9.00306
-8.37225
-7.79509
-7.26851
-6.78505
-6.33553
-5.91105
-5.50412
-5.10892
-4.72129
-4.33836
-3.95824
-3.57976
-3.20219
-2.8251
-2.44825
-2.07151
-1.6948
-1.3181
-0.941399
-0.564713
-0.188105
-31.42
-23.9797
-20.6977
-19.0875
-18.1568
-17.5065
-16.9673
-16.4603
-15.944
-15.3934
-14.7937
-14.139
-13.4329
-12.6872
-11.9179
-11.142
-10.3769
-9.64016
-8.94778
-8.3114
-7.7346
-7.21306
-6.73743
-6.29672
-5.88076
-5.48128
-5.09221
-4.70936
-4.33001
-3.9525
-3.57587
-3.19959
-2.82337
-2.44712
-2.07077
-1.69433
-1.31781
-0.941226
-0.564629
-0.188091
-32.3395
-24.3925
-20.8956
-19.1923
-18.2215
-17.5558
-17.0134
-16.5092
-15.9974
-15.4501
-14.8499
-14.1894
-13.4724
-12.7121
-11.9262
-11.1329
-10.351
-9.5993
-8.89596
-8.25415
-7.67767
-7.16091
-6.69269
-6.26029
-5.85231
-5.45981
-5.07645
-4.69805
-4.32205
-3.94699
-3.5721
-3.19703
-2.82166
-2.44597
-2.07001
-1.69383
-1.31749
-0.941038
-0.564538
-0.188077
-32.9628
-24.6775
-21.0366
-19.2704
-18.2723
-17.5962
-17.0519
-16.5498
-16.0414
-15.4966
-14.8957
-14.2305
-13.5046
-12.7325
-11.9333
-11.1263
-10.3309
-9.56733
-8.85507
-8.20878
-7.63243
-7.11944
-6.65709
-6.23128
-5.82962
-5.44264
-5.06379
-4.68891
-4.31556
-3.94244
-3.56894
-3.19486
-2.82017
-2.44495
-2.06932
-1.69337
-1.31719
-0.940854
-0.564447
-0.18806
-33.279
-24.8244
-21.1113
-19.3136
-18.3018
-17.6206
-17.0756
-16.575
-16.0687
-15.5252
-14.9238
-14.2555
-13.5242
-12.7451
-11.9381
-11.123
-10.3198
-9.54899
-8.83127
-8.18212
-7.6057
-7.09483
-6.63588
-6.2139
-5.81593
-5.43218
-5.05599
-4.68319
-4.31142
-3.93947
-3.56682
-3.19335
-2.81909
-2.44419
-2.06877
-1.69298
-1.31692
-0.940689
-0.56436
-0.188039
-21.2881
-20.5617
-19.6855
-18.8854
-18.1875
-17.5644
-16.983
-16.4163
-15.8442
-15.2531
-14.6349
-13.9866
-13.3102
-12.6116
-11.9
-11.1863
-10.4819
-9.79784
-9.14352
-8.52548
-7.94693
-7.4076
-6.90445
-6.43261
-5.98649
-5.56051
-5.14971
-4.74995
-4.358
-3.9714
-3.5884
-3.20775
-2.82862
-2.45043
-2.07284
-1.6956
-1.31856
-0.941666
-0.564867
-0.188182
-21.6386
-20.6526
-19.6659
-18.8386
-18.1418
-17.526
-16.9513
-16.3894
-15.8208
-15.2325
-14.6172
-13.9722
-13.2997
-12.6055
-11.8986
-11.1894
-10.4893
-9.80893
-9.15726
-8.54075
-7.96256
-7.42259
-6.91805
-6.44438
-5.99625
-5.56832
-5.15576
-4.75453
-4.36137
-3.97384
-3.59013
-3.20896
-2.82945
-2.45101
-2.07323
-1.69586
-1.31875
-0.941795
-0.564955
-0.188211
-22.3453
-20.9924
-19.7856
-18.861
-18.1294
-17.5053
-16.9323
-16.3751
-15.8114
-15.2274
-14.6151
-13.9719
-13.3001
-12.6059
-11.8982
-11.1881
-10.4869
-9.80554
-9.15322
-8.53656
-7.95874
-7.4195
-6.91584
-6.44302
-5.9956
-5.56818
-5.15595
-4.75488
-4.36179
-3.97425
-3.5905
-3.20927
-2.82971
-2.45121
-2.07338
-1.69598
-1.31884
-0.941856
-0.564988
-0.188205
-23.1836
-21.4571
-19.9984
-18.9452
-18.1567
-17.5116
-16.9339
-16.3789
-15.8195
-15.2392
-14.6291
-13.9858
-13.3115
-12.6129
-11.8998
-11.1837
-10.4766
-9.79009
-9.13413
-8.51577
-7.93821
-7.40081
-6.89993
-6.43023
-5.9858
-5.56098
-5.15086
-4.75139
-4.35947
-3.97276
-3.58956
-3.20871
-2.82937
-2.45102
-2.07328
-1.69593
-1.31882
-0.941851
-0.564984
-0.188195
-24.0238
-21.9583
-20.2568
-19.0699
-18.2164
-17.5434
-16.9566
-16.4013
-15.8448
-15.2675
-14.6583
-14.0127
-13.333
-12.6264
-11.9036
-11.1772
-10.4601
-9.76491
-9.10267
-8.48123
-7.90385
-7.36922
-6.8727
-6.40798
-5.96841
-5.5479
-5.14133
-4.74465
-4.35481
-3.9696
-3.58747
-3.20734
-2.8285
-2.45047
-2.07294
-1.69573
-1.3187
-0.941784
-0.564952
-0.188187
-24.7929
-22.4377
-20.522
-19.2119
-18.2951
-17.5929
-16.9953
-16.4383
-15.8839
-15.3088
-14.6994
-14.05
-13.3624
-12.6449
-11.9095
-11.1696
-10.4395
-9.73298
-9.06244
-8.4369
-7.85965
-7.3285
-6.83751
-6.3791
-5.94571
-5.53068
-5.12866
-4.73556
-4.34844
-3.96522
-3.58451
-3.20537
-2.8272
-2.44962
-2.0724
-1.69538
-1.31849
-0.941663
-0.564896
-0.188183
-25.4474
-22.8575
-20.7649
-19.3507
-18.3787
-17.6501
-17.0422
-16.4833
-15.9305
-15.3572
-14.747
-14.0927
-13.396
-12.6662
-11.9166
-11.162
-10.4175
-9.69828
-9.01842
-8.38824
-7.81113
-7.28383
-6.7989
-6.34739
-5.92073
-5.51167
-5.11459
-4.7254
-4.34125
-3.96022
-3.58108
-3.20305
-2.82565
-2.44859
-2.07172
-1.69495
-1.31821
-0.941504
-0.564822
-0.188181
-25.9596
-23.1924
-20.9648
-19.47
-18.4545
-17.7047
-17.0885
-16.5281
-15.9768
-15.4049
-14.7937
-14.1345
-13.4288
-12.687
-11.924
-11.1553
-10.3971
-9.66566
-8.97671
-8.34199
-7.76498
-7.24136
-6.76222
-6.31726
-5.89695
-5.49352
-5.10111
-4.71561
-4.33427
-3.95533
-3.57769
-3.20072
-2.82406
-2.44752
-2.07101
-1.69447
-1.31791
-0.941324
-0.564737
-0.188176
-26.3117
-23.4255
-21.107
-19.5575
-18.5123
-17.748
-17.1262
-16.565
-16.015
-15.4442
-14.832
-14.1687
-13.4555
-12.7041
-11.9303
-11.1504
-10.3813
-9.64001
-8.94364
-8.30513
-7.7281
-7.20738
-6.73284
-6.29308
-5.87783
-5.47886
-5.09016
-4.7076
-4.32851
-3.95123
-3.57481
-3.19871
-2.82267
-2.44656
-2.07034
-1.69402
-1.31761
-0.941144
-0.564649
-0.188166
-26.4922
-23.5464
-21.1822
-19.6052
-18.5451
-17.7736
-17.1491
-16.5878
-16.0387
-15.4685
-14.8557
-14.1897
-13.472
-12.7148
-11.9346
-11.1481
-10.3724
-9.62521
-8.92427
-8.28334
-7.70617
-7.18707
-6.71518
-6.27847
-5.86618
-5.46984
-5.08333
-4.70252
-4.32477
-3.94851
-3.57284
-3.19729
-2.82165
-2.44582
-2.06982
-1.69365
-1.31736
-0.940983
-0.564565
-0.188149
-20.3029
-19.9743
-19.4038
-18.7724
-18.1556
-17.5683
-17.0017
-16.4404
-15.8697
-15.2779
-14.6575
-14.0057
-13.3247
-12.6208
-11.9034
-11.1838
-10.4741
-9.78561
-9.12814
-8.50859
-7.93014
-7.39221
-6.89127
-6.42196
-5.97829
-5.55445
-5.1454
-4.74699
-4.35602
-3.97012
-3.58759
-3.20725
-2.82831
-2.45026
-2.07274
-1.69554
-1.31853
-0.941639
-0.564836
-0.188146
-20.3595
-19.9783
-19.3675
-18.7237
-18.1075
-17.5243
-16.9613
-16.4025
-15.8338
-15.2444
-14.6274
-13.9805
-13.306
-12.6098
-11.9009
-11.19
-10.4883
-9.80652
-9.15398
-8.53715
-7.95919
-7.41983
-6.91607
-6.44317
-5.99568
-5.56822
-5.15596
-4.75487
-4.36176
-3.97422
-3.59047
-3.20924
-2.82968
-2.45118
-2.07336
-1.69596
-1.31882
-0.941842
-0.564976
-0.188198
-20.6149
-20.1454
-19.4433
-18.7445
-18.1021
-17.5087
-16.9433
-16.3855
-15.819
-15.2322
-14.6179
-13.9736
-13.3013
-12.6073
-11.9004
-11.1913
-10.4911
-9.81061
-9.15903
-8.543
-7.96564
-7.42659
-6.9228
-6.44952
-6.00139
-5.57313
-5.16002
-4.75811
-4.36428
-3.97613
-3.59188
-3.21027
-2.83042
-2.45171
-2.07373
-1.69622
-1.319
-0.941968
-0.56505
-0.188204
-20.9875
-20.4121
-19.596
-18.8202
-18.1352
-17.5217
-16.9487
-16.3898
-15.825
-15.2406
-14.6279
-13.9836
-13.3097
-12.6128
-11.9023
-11.1891
-10.4848
-9.80067
-9.14649
-8.52942
-7.95261
-7.41527
-6.91373
-6.44275
-5.99665
-5.57
-5.15808
-4.757
-4.36371
-3.97588
-3.59182
-3.21031
-2.83049
-2.45179
-2.07382
-1.6963
-1.31907
-0.942017
-0.56508
-0.188205
-21.4033
-20.7231
-19.7904
-18.9314
-18.1973
-17.5586
-16.9749
-16.4134
-15.8498
-15.2674
-14.6553
-14.0089
-13.33
-12.6258
-11.9068
-11.1847
-10.4715
-9.77942
-9.11943
-8.49972
-7.92346
-7.38903
-6.89166
-6.42517
-5.98326
-5.56017
-5.1511
-4.75217
-4.36045
-3.97373
-3.59043
-3.20943
-2.82995
-2.45146
-2.07362
-1.69619
-1.31901
-0.941992
-0.565075
-0.188211
-21.81
-21.0357
-19.9961
-19.0584
-18.2759
-17.6112
-17.0161
-16.4515
-15.8891
-15.3085
-14.6964
-14.0464
-13.3595
-12.6446
-11.9136
-11.179
-10.4534
-9.75004
-9.08165
-8.45808
-7.88248
-7.35199
-6.86029
-6.39991
-5.96372
-5.54557
-5.14048
-4.74463
-4.35521
-3.97015
-3.58802
-3.20783
-2.8289
-2.45078
-2.07319
-1.69592
-1.31885
-0.941904
-0.56504
-0.188222
-22.1719
-21.3188
-20.1888
-19.1832
-18.3579
-17.6699
-17.0644
-16.4973
-15.9362
-15.3576
-14.7454
-14.0907
-13.3943
-12.6668
-11.922
-11.173
-10.4331
-9.71669
-9.0383
-8.4102
-7.83547
-7.30959
-6.82438
-6.37094
-5.94122
-5.52862
-5.12804
-4.7357
-4.34891
-3.96578
-3.58503
-3.2058
-2.82754
-2.44988
-2.07259
-1.69553
-1.31861
-0.941768
-0.564984
-0.188234
-22.4641
-21.55
-20.3499
-19.2909
-18.4318
-17.7251
-17.1114
-16.5426
-15.9831
-15.4067
-14.7943
-14.1349
-13.4287
-12.6887
-11.9305
-11.1677
-10.414
-9.6846
-8.99608
-8.36343
-7.7896
-7.26831
-6.78948
-6.34277
-5.91929
-5.51204
-5.11581
-4.72685
-4.34261
-3.96135
-3.58196
-3.20369
-2.8261
-2.4489
-2.07194
-1.6951
-1.31833
-0.941605
-0.564912
-0.188243
-22.6695
-21.7138
-20.4658
-19.3704
-18.488
-17.7685
-17.1494
-16.5798
-16.0219
-15.4472
-14.8345
-14.171
-13.4568
-12.7066
-11.9377
-11.1639
-10.3992
-9.65923
-8.96232
-8.32573
-7.75248
-7.23485
-6.76115
-6.31987
-5.90142
-5.49847
-5.10572
-4.71949
-4.33731
-3.95758
-3.57929
-3.20182
-2.8248
-2.448
-2.07131
-1.69467
-1.31805
-0.941437
-0.564833
-0.188244
-22.7768
-21.8
-20.5279
-19.414
-18.5199
-17.794
-17.1724
-16.6027
-16.0459
-15.4723
-14.8593
-14.1932
-13.4739
-12.7176
-11.9424
-11.1623
-10.391
-9.64464
-8.94246
-8.30327
-7.7302
-7.21466
-6.74397
-6.30589
-5.89041
-5.49001
-5.09934
-4.71474
-4.33382
-3.95503
-3.57744
-3.20048
-2.82382
-2.4473
-2.07081
-1.69431
-1.3178
-0.941281
-0.564754
-0.188233
-19.5689
-19.4035
-19.038
-18.5654
-18.0514
-17.5257
-16.9948
-16.4541
-15.8949
-15.3086
-14.689
-14.0342
-13.347
-12.6347
-11.9077
-11.1782
-10.4591
-9.76267
-9.09954
-8.47724
-7.89897
-7.36358
-6.86666
-6.40194
-5.96276
-5.54289
-5.13708
-4.74119
-4.35209
-3.96752
-3.58591
-3.2062
-2.82767
-2.44987
-2.07251
-1.69541
-1.31846
-0.941592
-0.564798
-0.188115
-19.5335
-19.3708
-18.9907
-18.5114
-17.9972
-17.4733
-16.944
-16.4044
-15.8464
-15.2623
-14.6469
-13.9987
-13.3206
-12.6192
-11.9042
-11.187
-10.4792
-9.79237
-9.13619
-8.51765
-7.93989
-7.40226
-6.90114
-6.4312
-5.98655
-5.56156
-5.15128
-4.7517
-4.3597
-3.97292
-3.58968
-3.20879
-2.82943
-2.45106
-2.07331
-1.69595
-1.31883
-0.94185
-0.564977
-0.188186
-19.5933
-19.431
-19.0211
-18.5157
-17.9857
-17.454
-16.9219
-16.3821
-15.8256
-15.2439
-14.6316
-13.9868
-13.3121
-12.6146
-11.9036
-11.1903
-10.486
-9.80187
-9.14773
-8.53066
-7.95381
-7.41638
-6.9147
-6.44358
-5.99733
-5.57055
-5.15852
-4.75734
-4.36397
-3.97608
-3.59198
-3.21043
-2.83059
-2.45187
-2.07387
-1.69634
-1.31909
-0.942031
-0.565086
-0.188204
-19.7397
-19.5627
-19.1101
-18.5662
-18.0103
-17.4644
-16.9261
-16.3853
-15.8304
-15.2514
-14.6411
-13.9967
-13.3207
-12.6205
-11.9065
-11.1898
-10.4818
-9.79412
-9.13736
-8.51954
-7.94379
-7.40859
-6.90946
-6.4406
-5.99607
-5.57042
-5.15904
-4.75816
-4.36485
-3.97691
-3.59268
-3.211
-2.83104
-2.45221
-2.07413
-1.69653
-1.31923
-0.942132
-0.565147
-0.188218
-19.938
-19.737
-19.236
-18.6482
-18.0618
-17.4984
-16.9525
-16.4104
-15.8577
-15.2819
-14.6732
-14.0268
-13.3447
-12.6361
-11.913
-11.1867
-10.4689
-9.77187
-9.10802
-8.48743
-7.91315
-7.38217
-6.88834
-6.42468
-5.98461
-5.5625
-5.15374
-4.75473
-4.3627
-3.9756
-3.59191
-3.21057
-2.8308
-2.45209
-2.07408
-1.69652
-1.31924
-0.942152
-0.56517
-0.188237
-20.1544
-19.9263
-19.3774
-18.7461
-18.1292
-17.548
-16.9944
-16.4516
-15.9023
-15.3308
-14.724
-14.0739
-13.3816
-12.6596
-11.9226
-11.1821
-10.4496
-9.73838
-9.06329
-8.43836
-7.8663
-7.34152
-6.85537
-6.39923
-5.96569
-5.54886
-5.14415
-4.74813
-4.35824
-3.97263
-3.58996
-3.2093
-2.82999
-2.45158
-2.07376
-1.69632
-1.31914
-0.942101
-0.56516
-0.188263
-20.3609
-20.1068
-19.5152
-18.8452
-18.2009
-17.6039
-17.0439
-16.5015
-15.9568
-15.3908
-14.7867
-14.1321
-13.4263
-12.6876
-11.9343
-11.1771
-10.4272
-9.69843
-9.00873
-8.37862
-7.80976
-7.29281
-6.81596
-6.36872
-5.94284
-5.53218
-5.13224
-4.73977
-4.35246
-3.96868
-3.5873
-3.20752
-2.82881
-2.4508
-2.07325
-1.696
-1.31894
-0.941993
-0.565124
-0.188291
-20.5359
-20.2596
-19.6336
-18.9326
-18.2663
-17.6568
-17.0922
-16.5512
-16.0116
-15.4517
-14.8508
-14.1918
-13.4714
-12.7154
-11.9461
-11.1728
-10.4057
-9.659
-8.95342
-8.31806
-7.75284
-7.24408
-6.77668
-6.33833
-5.92003
-5.51544
-5.12018
-4.73121
-4.34647
-3.96453
-3.58444
-3.20557
-2.82749
-2.44991
-2.07265
-1.69561
-1.31869
-0.941851
-0.565068
-0.188315
-20.6631
-20.3707
-19.7206
-18.9981
-18.3166
-17.6987
-17.1314
-16.5922
-16.0571
-15.5021
-14.9035
-14.2402
-13.5078
-12.7379
-11.9559
-11.1698
-10.3893
-9.62807
-8.90932
-8.26895
-7.70626
-7.20407
-6.74439
-6.31331
-5.90119
-5.50155
-5.11009
-4.72398
-4.34133
-3.96091
-3.58191
-3.2038
-2.82626
-2.44906
-2.07207
-1.69521
-1.31843
-0.941695
-0.565
-0.188327
-20.7314
-20.4305
-19.7681
-19.0346
-18.3455
-17.7235
-17.1553
-16.6175
-16.0852
-15.5333
-14.9359
-14.2695
-13.5294
-12.7513
-11.962
-11.169
-10.3807
-9.61072
-8.88354
-8.23963
-7.67815
-7.17977
-6.72467
-6.29794
-5.8895
-5.49282
-5.10366
-4.71927
-4.33791
-3.95843
-3.58011
-3.2025
-2.82532
-2.44838
-2.07158
-1.69486
-1.31819
-0.941546
-0.564926
-0.188322
-19.0333
-18.9301
-18.6847
-18.3313
-17.9117
-17.4532
-16.968
-16.4576
-15.9177
-15.3424
-14.7267
-14.0697
-13.3752
-12.6521
-11.9124
-11.1696
-10.4376
-9.73014
-9.05911
-8.43297
-7.855
-7.32324
-6.83198
-6.37373
-5.94083
-5.5265
-5.12525
-4.73289
-4.34642
-3.96375
-3.58346
-3.20464
-2.8267
-2.44929
-2.07217
-1.69521
-1.31835
-0.941528
-0.56476
-0.188097
-18.9755
-18.8881
-18.6359
-18.2762
-17.8537
-17.3941
-16.9081
-16.3969
-15.8571
-15.2836
-14.6728
-14.024
-13.3411
-12.6322
-11.908
-11.1809
-10.4637
-9.76862
-9.10653
-8.48511
-7.90757
-7.37261
-6.87566
-6.41047
-5.97045
-5.54953
-5.1426
-4.74563
-4.35557
-3.97019
-3.58792
-3.20769
-2.82876
-2.45067
-2.07309
-1.69583
-1.31877
-0.941823
-0.564965
-0.188183
-18.9535
-18.8926
-18.636
-18.2653
-17.8338
-17.3689
-16.8805
-16.3692
-15.8309
-15.2604
-14.6534
-14.0089
-13.3305
-12.6264
-11.9077
-11.186
-10.4734
-9.78191
-9.12236
-8.50289
-7.92664
-7.39203
-6.89436
-6.42752
-5.98522
-5.56178
-5.1524
-4.75321
-4.36126
-3.97437
-3.59093
-3.20982
-2.83025
-2.4517
-2.0738
-1.69632
-1.3191
-0.94205
-0.565103
-0.188214
-18.9911
-18.9454
-18.6785
-18.2915
-17.8466
-17.3735
-16.8819
-16.3714
-15.8365
-15.2702
-14.6667
-14.0229
-13.3423
-12.6347
-11.9123
-11.1867
-10.4696
-9.77315
-9.10973
-8.48937
-7.91515
-7.38409
-6.89009
-6.4262
-5.98589
-5.56356
-5.15461
-4.75543
-4.36326
-3.97604
-3.59226
-3.21084
-2.83102
-2.45226
-2.07421
-1.69661
-1.31931
-0.942196
-0.565193
-0.188241
-19.0779
-19.0352
-18.7523
-18.3453
-17.8844
-17.402
-16.9075
-16.3992
-15.8699
-15.3103
-14.7109
-14.0652
-13.3755
-12.656
-11.9219
-11.1844
-10.4544
-9.74475
-9.07052
-8.44669
-7.87584
-7.35185
-6.86576
-6.40899
-5.97436
-5.55619
-5.15012
-4.75283
-4.36184
-3.97533
-3.59196
-3.21076
-2.83104
-2.45233
-2.07429
-1.69669
-1.31938
-0.942258
-0.565242
-0.188276
-19.1934
-19.1456
-18.8435
-18.4153
-17.9382
-17.4467
-16.9503
-16.4464
-15.9258
-15.3763
-14.7834
-14.1343
-13.4278
-12.688
-11.936
-11.1804
-10.4307
-9.6996
-9.00658
-8.37742
-7.81252
-7.29975
-6.82573
-6.37967
-5.95363
-5.54193
-5.14054
-4.74652
-4.35776
-3.97274
-3.59033
-3.20975
-2.83042
-2.45196
-2.07407
-1.69657
-1.31933
-0.942242
-0.565257
-0.188318
-19.3164
-19.2593
-18.9377
-18.4897
-17.9978
-17.4987
-17.0021
-16.5045
-15.9955
-15.4599
-14.8775
-14.2251
-13.4936
-12.7261
-11.9531
-11.1761
-10.4023
-9.64336
-8.92254
-8.28768
-7.73246
-7.23503
-6.77638
-6.34345
-5.92775
-5.52382
-5.12808
-4.73806
-4.35209
-3.96897
-3.58785
-3.20813
-2.82937
-2.45128
-2.07364
-1.6963
-1.31917
-0.942162
-0.565241
-0.188361
-19.4281
-19.3607
-19.0221
-18.5574
-18.0537
-17.5489
-17.0534
-16.5632
-16.0669
-15.547
-14.9776
-14.3235
-13.5615
-12.7634
-11.9709
-11.1728
-10.3751
-9.58677
-8.8318
-8.19228
-7.64914
-7.16867
-6.72623
-6.30674
-5.90147
-5.50531
-5.1152
-4.7292
-4.34604
-3.96487
-3.58509
-3.20627
-2.82813
-2.45045
-2.07309
-1.69594
-1.31894
-0.94204
-0.565201
-0.188398
-19.5131
-19.4371
-19.0859
-18.6095
-18.0975
-17.5894
-17.0954
-16.6117
-16.1261
-15.6187
-15.0581
-14.3997
-13.6139
-12.7935
-11.9847
-11.1709
-10.3552
-9.54402
-8.7623
-8.116
-7.58091
-7.11383
-6.68465
-6.27626
-5.87957
-5.4898
-5.10431
-4.72162
-4.34079
-3.96124
-3.58258
-3.20455
-2.82695
-2.44964
-2.07254
-1.69557
-1.3187
-0.941898
-0.565144
-0.188421
-19.5606
-19.4796
-19.1217
-18.6393
-18.1232
-17.6137
-17.1213
-16.6418
-16.1628
-15.6629
-15.1072
-14.4451
-13.6435
-12.8105
-11.9928
-11.1715
-10.3464
-9.52178
-8.72247
-8.07074
-7.53976
-7.08047
-6.6592
-6.25749
-5.86597
-5.48004
-5.09735
-4.71666
-4.33726
-3.95872
-3.58078
-3.20326
-2.82602
-2.44898
-2.07206
-1.69523
-1.31847
-0.941756
-0.565076
-0.188422
-18.6461
-18.5645
-18.386
-18.1137
-17.7689
-17.3713
-16.9323
-16.4555
-15.9389
-15.3779
-14.7682
-14.1095
-13.4071
-12.6717
-11.9171
-11.1586
-10.4114
-9.69072
-9.01014
-8.37939
-7.80188
-7.27461
-6.79027
-6.33982
-5.91449
-5.5068
-5.11098
-4.72286
-4.33955
-3.95915
-3.58045
-3.20271
-2.8255
-2.44855
-2.07173
-1.69496
-1.3182
-0.941452
-0.564723
-0.188089
-18.5882
-18.5235
-18.3398
-18.0599
-17.7093
-17.3073
-16.8647
-16.385
-15.8669
-15.3071
-14.7026
-14.0538
-13.3654
-12.6473
-11.9119
-11.1727
-10.4436
-9.73821
-9.06858
-8.4435
-7.86625
-7.33469
-6.84302
-6.38383
-5.94964
-5.53387
-5.1312
-4.73757
-4.35001
-3.96646
-3.58547
-3.20612
-2.82778
-2.45007
-2.07274
-1.69563
-1.31866
-0.941771
-0.564946
-0.188188
-18.5338
-18.5017
-18.3229
-18.0387
-17.6827
-17.2767
-16.8322
-16.3526
-15.8367
-15.2807
-14.6812
-14.0374
-13.3539
-12.6412
-11.9122
-11.1794
-10.4557
-9.75395
-9.08679
-8.46391
-7.88848
-7.35774
-6.8655
-6.40444
-5.96755
-5.54872
-5.14304
-4.74669
-4.35684
-3.97144
-3.58904
-3.20864
-2.82953
-2.45128
-2.07356
-1.6962
-1.31905
-0.942032
-0.565107
-0.188234
-18.5201
-18.5116
-18.3362
-18.0471
-17.6852
-17.2759
-16.8313
-16.3551
-15.8452
-15.2964
-14.7025
-14.0597
-13.3719
-12.6532
-11.919
-11.1809
-10.4506
-9.74118
-9.06739
-8.44316
-7.87128
-7.3463
-6.85969
-6.40298
-5.96886
-5.55148
-5.14629
-4.74985
-4.35962
-3.97373
-3.59084
-3.21
-2.83054
-2.45201
-2.07409
-1.69657
-1.31931
-0.942216
-0.565221
-0.188276
-18.5499
-18.5527
-18.3755
-18.0795
-17.7114
-17.2994
-16.857
-16.3879
-15.889
-15.3526
-14.7675
-14.1231
-13.4197
-12.6824
-11.9325
-11.179
-10.431
-9.70136
-9.00927
-8.38057
-7.81574
-7.30277
-6.82842
-6.38197
-5.95555
-5.54351
-5.14182
-4.74756
-4.35859
-3.9734
-3.59086
-3.21017
-2.83076
-2.45222
-2.07427
-1.69672
-1.31943
-0.942313
-0.565296
-0.188326
-18.6119
-18.616
-18.4326
-18.128
-17.7536
-17.3401
-16.9024
-16.4445
-15.9629
-15.4471
-14.8785
-14.2322
-13.4964
-12.725
-11.9522
-11.1753
-10.3999
-9.63617
-8.90801
-8.2737
-7.72333
-7.23102
-6.77618
-6.34555
-5.93094