# vtk DataFile Version 2.0
I need something to put here
ASCII

DATASET STRUCTURED_GRID
DIMENSIONS 41 21 21
POINTS 18081 float
0.000000 0.000000 0.000000
0.100000 0.000000 0.000000
0.200000 0.000000 0.000000
0.300000 0.000000 0.000000
0.400000 0.000000 0.000000
0.500000 0.000000 0.000000
0.600000 0.000000 0.000000
0.700000 0.000000 0.000000
0.800000 0.000000 0.000000
0.900000 0.000000 0.000000
1.000000 0.000000 0.000000
1.100000 0.000000 0.000000
1.200000 0.000000 0.000000
1.300000 0.000000 0.000000
1.400000 0.000000 0.000000
1.500000 0.000000 0.000000
1.600000 0.000000 0.000000
1.700000 0.000000 0.000000
1.800000 0.000000 0.000000
1.900000 0.000000 0.000000
2.000000 0.000000 0.000000
2.100000 0.000000 0.000000
2.200000 0.000000 0.000000
2.300000 0.000000 0.000000
2.400000 0.000000 0.000000
2.500000 0.000000 0.000000
2.600000 0.000000 0.000000
2.700000 0.000000 0.000000
2.800000 0.000000 0.000000
2.900000 0.000000 0.000000
3.000000 0.000000 0.000000
3.100000 0.000000 0.000000
3.200000 0.000000 0.000000
3.300000 0.000000 0.000000
3.400000 0.000000 0.000000
3.500000 0.000000 0.000000
3.600000 0.000000 0.000000
3.700000 0.000000 0.000000
3.800000 0.000000 0.000000
3.900000 0.000000 0.000000
4.000000 0.000000 0.000000
0.000000 0.100000 0.000000
0.100000 0.100000 0.000000
0.200000 0.100000 0.000000
0.300000 0.100000 0.000000
0.400000 0.100000 0.000000
0.500000 0.100000 0.000000
0.600000 0.100000 0.000000
0.700000 0.100000 0.000000
0.800000 0.100000 0.000000
0.900000 0.100000 0.000000
1.000000 0.100000 0.000000
1.100000 0.100000 0.000000
1.200000 0.100000 0.000000
1.300000 0.100000 0.000000
1.400000 0.100000 0.000000
1.500000 0.100000 0.000000
1.600000 0.100000 0.000000
1.700000 0.100000 0.000000
1.800000 0.100000 0.000000
1.900000 0.100000 0.000000
2.000000 0.100000 0.000000
2.100000 0.100000 0.000000
2.200000 0.100000 0.000000
2.300000 0.100000 0.000000
2.400000 0.100000 0.000000
2.500000 0.100000 0.000000
2.600000 0.100000 0.000000
2.700000 0.100000 0.000000
2.800000 0.100000 0.000000
2.900000 0.100000 0.000000
3.000000 0.100000 0.000000
3.100000 0.100000 0.000000
3.200000 0.100000 0.000000
3.300000 0.100000 0.000000
3.400000 0.100000 0.000000
3.500000 0.100000 0.000000
3.600000 0.100000 0.000000
3.700000 0.100000 0.000000
3.800000 0.100000 0.000000
3.900000 0.100000 0.000000
4.000000 0.100000 0.000000
0.000000 0.200000 0.000000
0.100000 0.200000 0.000000
0.200000 0.200000 0.000000
0.300000 0.200000 0.000000
0.400000 0.200000 0.000000
0.500000 0.200000 0.000000
0.600000 0.200000 0.000000
0.700000 0.200000 0.000000
0.800000 0.200000 0.000000
0.900000 0.200000 0.000000
1.000000 0.200000 0.000000
1.100000 0.200000 0.000000
1.200000 0.200000 0.000000
1.300000 0.200000 0.000000
1.400000 0.200000 0.000000
1.500000 0.200000 0.000000
1.600000 0.200000 0.000000
1.700000 0.200000 0.000000
1.800000 0.200000 0.000000
1.900000 0.200000 0.000000
2.000000 0.200000 0.000000
2.100000 0.200000 0.000000
2.200000 0.200000 0.000000
2.300000 0.200000 0.000000
2.400000 0.200000 0.000000
2.500000 0.200000 0.000000
2.600000 0.200000 0.000000
2.700000 0.200000 0.000000
2.800000 0.200000 0.000000
2.900000 0.200000 0.000000
3.000000 0.200000 0.000000
3.100000 0.200000 0.000000
3.200000 0.200000 0.000000
3.300000 0.200000 0.000000
3.400000 0.200000 0.000000
3.500000 0.200000 0.000000
3.600000 0.200000 0.000000
3.700000 0.200000 0.000000
3.800000 0.200000 0.000000
3.900000 0.200000 0.000000
4.000000 0.200000 0.000000
0.000000 0.300000 0.000000
0.100000 0.300000 0.000000
0.200000 0.300000 0.000000
0.300000 0.300000 0.000000
0.400000 0.300000 0.000000
0.500000 0.300000 0.000000
0.600000 0.300000 0.000000
0.700000 0.300000 0.000000
0.800000 0.300000 0.000000
0.900000 0.300000 0.000000
1.000000 0.300000 0.000000
1.100000 0.300000 0.000000
1.200000 0.300000 0.000000
1.300000 0.300000 0.000000
1.400000 0.300000 0.000000
1.500000 0.300000 0.000000
1.600000 0.300000 0.000000
1.700000 0.300000 0.000000
1.800000 0.300000 0.000000
1.900000 0.300000 0.000000
2.000000 0.300000 0.000000
2.100000 0.300000 0.000000
2.200000 0.300000 0.000000
2.300000 0.300000 0.000000
2.400000 0.300000 0.000000
2.500000 0.300000 0.000000
2.600000 0.300000 0.000000
2.700000 0.300000 0.000000
2.800000 0.300000 0.000000
2.900000 0.300000 0.000000
3.000000 0.300000 0.000000
3.100000 0.300000 0.000000
3.200000 0.300000 0.000000
3.300000 0.300000 0.000000
3.400000 0.300000 0.000000
3.500000 0.300000 0.000000
3.600000 0.300000 0.000000
3.700000 0.300000 0.000000
3.800000 0.300000 0.000000
3.900000 0.300000 0.000000
4.000000 0.300000 0.000000
0.000000 0.400000 0.000000
0.100000 0.400000 0.000000
0.200000 0.400000 0.000000
0.300000 0.400000 0.000000
0.400000 0.400000 0.000000
0.500000 0.400000 0.000000
0.600000 0.400000 0.000000
0.700000 0.400000 0.000000
0.800000 0.400000 0.000000
0.900000 0.400000 0.000000
1.000000 0.400000 0.000000
1.100000 0.400000 0.000000
1.200000 0.400000 0.000000
1.300000 0.400000 0.000000
1.400000 0.400000 0.000000
1.500000 0.400000 0.000000
1.600000 0.400000 0.000000
1.700000 0.400000 0.000000
1.800000 0.400000 0.000000
1.900000 0.400000 0.000000
2.000000 0.400000 0.000000
2.100000 0.400000 0.000000
2.200000 0.400000 0.000000
2.300000 0.400000 0.000000
2.400000 0.400000 0.000000
2.500000 0.400000 0.000000
2.600000 0.400000 0.000000
2.700000 0.400000 0.000000
2.800000 0.400000 0.000000
2.900000 0.400000 0.000000
3.000000 0.400000 0.000000
3.100000 0.400000 0.000000
3.200000 0.400000 0.000000
3.300000 0.400000 0.000000
3.400000 0.400000 0.000000
3.500000 0.400000 0.000000
3.600000 0.400000 0.000000
3.700000 0.400000 0.000000
3.800000 0.400000 0.000000
3.900000 0.400000 0.000000
4.000000 0.400000 0.000000
0.000000 0.500000 0.000000
0.100000 0.500000 0.000000
0.200000 0.500000 0.000000
0.300000 0.500000 0.000000
0.400000 0.500000 0.000000
0.500000 0.500000 0.000000
0.600000 0.500000 0.000000
0.700000 0.500000 0.000000
0.800000 0.500000 0.000000
0.900000 0.500000 0.000000
1.000000 0.500000 0.000000
1.100000 0.500000 0.000000
1.200000 0.500000 0.000000
1.300000 0.500000 0.000000
1.400000 0.500000 0.000000
1.500000 0.500000 0.000000
1.600000 0.500000 0.000000
1.700000 0.500000 0.000000
1.800000 0.500000 0.000000
1.900000 0.500000 0.000000
2.000000 0.500000 0.000000
2.100000 0.500000 0.000000
2.200000 0.500000 0.000000
2.300000 0.500000 0.000000
2.400000 0.500000 0.000000
2.500000 0.500000 0.000000
2.600000 0.500000 0.000000
2.700000 0.500000 0.000000
2.800000 0.500000 0.000000
2.900000 0.500000 0.000000
3.000000 0.500000 0.000000
3.100000 0.500000 0.000000
3.200000 0.500000 0.000000
3.300000 0.500000 0.000000
3.400000 0.500000 0.000000
3.500000 0.500000 0.000000
3.600000 0.500000 0.000000
3.700000 0.500000 0.000000
3.800000 0.500000 0.000000
3.900000 0.500000 0.000000
4.000000 0.500000 0.000000
0.000000 0.600000 0.000000
0.100000 0.600000 0.000000
0.200000 0.600000 0.000000
0.300000 0.600000 0.000000
0.400000 0.600000 0.000000
0.500000 0.600000 0.000000
0.600000 0.600000 0.000000
0.700000 0.600000 0.000000
0.800000 0.600000 0.000000
0.900000 0.600000 0.000000
1.000000 0.600000 0.000000
1.100000 0.600000 0.000000
1.200000 0.600000 0.000000
1.300000 0.600000 0.000000
1.400000 0.600000 0.000000
1.500000 0.600000 0.000000
1.600000 0.600000 0.000000
1.700000 0.600000 0.000000
1.800000 0.600000 0.000000
1.900000 0.600000 0.000000
2.000000 0.600000 0.000000
2.100000 0.600000 0.000000
2.200000 0.600000 0.000000
2.300000 0.600000 0.000000
2.400000 0.600000 0.000000
2.500000 0.600000 0.000000
2.600000 0.600000 0.000000
2.700000 0.600000 0.000000
2.800000 0.600000 0.000000
2.900000 0.600000 0.000000
3.000000 0.600000 0.000000
3.100000 0.600000 0.000000
3.200000 0.600000 0.000000
3.300000 0.600000 0.000000
3.400000 0.600000 0.000000
3.500000 0.600000 0.000000
3.600000 0.600000 0.000000
3.700000 0.600000 0.000000
3.800000 0.600000 0.000000
3.900000 0.600000 0.000000
4.000000 0.600000 0.000000
0.000000 0.700000 0.000000
0.100000 0.700000 0.000000
0.200000 0.700000 0.000000
0.300000 0.700000 0.000000
0.400000 0.700000 0.000000
0.500000 0.700000 0.000000
0.600000 0.700000 0.000000
0.700000 0.700000 0.000000
0.800000 0.700000 0.000000
0.900000 0.700000 0.000000
1.000000 0.700000 0.000000
1.100000 0.700000 0.000000
1.200000 0.700000 0.000000
1.300000 0.700000 0.000000
1.400000 0.700000 0.000000
1.500000 0.700000 0.000000
1.600000 0.700000 0.000000
1.700000 0.700000 0.000000
1.800000 0.700000 0.000000
1.900000 0.700000 0.000000
2.000000 0.700000 0.000000
2.100000 0.700000 0.000000
2.200000 0.700000 0.000000
2.300000 0.700000 0.000000
2.400000 0.700000 0.000000
2.500000 0.700000 0.000000
2.600000 0.700000 0.000000
2.700000 0.700000 0.000000
2.800000 0.700000 0.000000
2.900000 0.700000 0.000000
3.000000 0.700000 0.000000
3.100000 0.700000 0.000000
3.200000 0.700000 0.000000
3.300000 0.700000 0.000000
3.400000 0.700000 0.000000
3.500000 0.700000 0.000000
3.600000 0.700000 0.000000
3.700000 0.700000 0.000000
3.800000 0.700000 0.000000
3.900000 0.700000 0.000000
4.000000 0.700000 0.000000
0.000000 0.800000 0.000000
0.100000 0.800000 0.000000
0.200000 0.800000 0.000000
0.300000 0.800000 0.000000
0.400000 0.800000 0.000000
0.500000 0.800000 0.000000
0.600000 0.800000 0.000000
0.700000 0.800000 0.000000
0.800000 0.800000 0.000000
0.900000 0.800000 0.000000
1.000000 0.800000 0.000000
1.100000 0.800000 0.000000
1.200000 0.800000 0.000000
1.300000 0.800000 0.000000
1.400000 0.800000 0.000000
1.500000 0.800000 0.000000
1.600000 0.800000 0.000000
1.700000 0.800000 0.000000
1.800000 0.800000 0.000000
1.900000 0.800000 0.000000
2.000000 0.800000 0.000000
2.100000 0.800000 0.000000
2.200000 0.800000 0.000000
2.300000 0.800000 0.000000
2.400000 0.800000 0.000000
2.500000 0.800000 0.000000
2.600000 0.800000 0.000000
2.700000 0.800000 0.000000
2.800000 0.800000 0.000000
2.900000 0.800000 0.000000
3.000000 0.800000 0.000000
3.100000 0.800000 0.000000
3.200000 0.800000 0.000000
3.300000 0.800000 0.000000
3.400000 0.800000 0.000000
3.500000 0.800000 0.000000
3.600000 0.800000 0.000000
[...]
CELL_DATA 16000
SCALARS pressure float 1
LOOKUP_TABLE default
34.6319
34.4551
34.118
33.6545
33.0902
32.4414
31.7159
30.9148
30.0345
29.0689
28.012
26.8617
25.6218
24.3051
22.9331
21.5345
20.1411
18.783
17.4846
16.2617
15.1213
14.0625
13.0789
12.1607
11.2967
10.476
9.68863
8.92625
8.18207
7.45084
6.72858
6.01242
5.30027
4.59072
3.88278
3.17582
2.46943
1.76341
1.05767
0.352288
34.6876
34.4852
34.1342
33.663
33.0945
32.4436
31.7172
30.9161
30.0363
29.0714
28.0152
26.8651
25.625
24.3074
22.934
21.5336
20.1387
18.7796
17.4808
16.2582
15.1184
14.0604
13.0777
12.1602
11.2968
10.4764
9.68926
8.92696
8.18278
7.45148
6.72914
6.01289
5.30066
4.59102
3.88302
3.176
2.46956
1.76349
1.0577
0.35224
34.8078
34.5688
34.1936
33.7071
33.1297
32.4746
31.7476
30.9484
30.0719
29.1102
28.0557
26.9043
25.6587
24.3312
22.9445
21.5295
20.1207
18.751
17.4457
16.2208
15.0824
14.0282
13.0505
12.1383
11.2799
10.4638
9.68019
8.92062
8.17848
7.44866
6.72735
6.0118
5.30003
4.59069
3.88286
3.17594
2.46955
1.76348
1.05765
0.352142
34.9708
34.6896
34.2845
33.7783
33.1896
32.53
31.8037
31.009
30.1388
29.1832
28.1317
26.9774
25.7211
24.3748
22.963
21.5202
20.0858
18.6962
17.379
16.1502
15.0144
13.9673
12.9989
12.0966
11.2475
10.4395
9.66245
8.90804
8.16979
7.44281
6.72352
6.00936
5.29854
4.58982
3.88238
3.17569
2.46942
1.7634
1.05757
0.352055
35.1556
34.8322
34.3956
33.8684
33.2681
32.6047
31.8812
31.0939
30.2335
29.2869
28.2399
27.0816
25.8098
24.4362
22.9878
21.5048
20.0333
18.6156
17.282
16.0484
14.9171
13.8806
12.9258
12.0378
11.2018
10.4053
9.63749
8.89031
8.1575
7.4345
6.71804
6.00584
5.29634
4.5885
3.88162
3.17528
2.46921
1.76328
1.05749
0.352001
35.3427
34.9811
34.5149
33.9678
33.357
32.6914
31.9728
31.1956
30.3482
29.4134
28.3726
27.2098
25.9191
24.5113
23.017
21.4835
19.966
18.5138
17.1608
15.9223
14.7976
13.7749
12.8374
11.9669
11.1472
10.3644
9.60775
8.86922
8.1429
7.42462
6.71151
6.00164
5.29371
4.58691
3.8807
3.17477
2.46895
1.76315
1.05742
0.351982
35.5152
35.1215
34.6298
34.0657
33.4464
32.7804
32.0683
31.3031
30.4704
29.5494
28.5163
27.3494
26.0386
24.5932
23.0479
21.4584
19.8902
18.4007
17.0275
15.785
14.6686
13.6618
12.7433
11.892
11.0896
10.3215
9.57671
8.84727
8.12773
7.41436
6.70474
5.99727
5.29098
4.58525
3.87974
3.17424
2.46868
1.76303
1.05738
0.35199
35.6585
35.24
34.7283
34.151
33.5257
32.8605
32.1555
31.4024
30.5843
29.6772
28.6522
27.4825
26.1529
24.6717
23.0771
21.4332
19.8161
18.2914
16.8999
15.6547
14.5472
13.5561
12.656
11.823
11.0369
10.2824
9.54844
8.82733
8.11397
7.40509
6.69862
5.99333
5.28851
4.58376
3.87887
3.17377
2.46844
1.76292
1.05736
0.352013
35.7608
35.3255
34.8003
34.2141
33.585
32.9212
32.2223
31.4789
30.6728
29.7772
28.7593
27.5879
26.244
24.7344
23.1002
21.4124
19.7563
18.2039
16.7985
15.552
14.4522
13.4739
12.5886
11.7698
10.9964
10.2525
9.52691
8.81218
8.10355
7.39806
6.69399
5.99036
5.28665
4.58263
3.87822
3.17341
2.46826
1.76285
1.05735
0.352038
35.8141
35.3704
34.8382
34.2476
33.6168
32.954
32.2585
31.5206
30.7213
29.8322
28.8186
27.6465
26.2948
24.7695
23.113
21.4007
19.7227
18.155
16.7422
15.4953
14.4
13.429
12.5518
11.7409
10.9745
10.2364
9.51531
8.80404
8.09795
7.3943
6.69152
5.98877
5.28566
4.58203
3.87787
3.17322
2.46817
1.76282
1.05734
0.352053
35.8142
35.3704
34.8383
34.2477
33.6168
32.954
32.2585
31.5207
30.7213
29.8322
28.8186
27.6465
26.2948
24.7694
23.113
21.4007
19.7228
18.1551
16.7423
15.4954
14.4001
13.4291
12.5519
11.7411
10.9746
10.2365
9.51539
8.80411
8.09801
7.39435
6.69156
5.9888
5.28568
4.58205
3.87788
3.17323
2.46817
1.76282
1.05734
0.352051
35.7609
35.3256
34.8003
34.2142
33.5851
32.9213
32.2224
31.479
30.6729
29.7772
28.7594
27.5879
26.244
24.7344
23.1001
21.4125
19.7565
18.2041
16.7988
15.5524
14.4527
13.4744
12.589
11.7702
10.9968
10.2528
9.52717
8.8124
8.10373
7.39821
6.69411
5.99045
5.28672
4.58268
3.87825
3.17343
2.46827
1.76286
1.05735
0.352034
35.6586
35.2401
34.7284
34.1511
33.5258
32.8606
32.1557
31.4025
30.5844
29.6773
28.6523
27.4825
26.1528
24.6717
23.0771
21.4333
19.8164
18.2918
16.9004
15.6554
14.5479
13.5568
12.6567
11.8236
11.0374
10.2829
9.54885
8.82768
8.11426
7.40532
6.6988
5.99348
5.28862
4.58384
3.87893
3.17381
2.46846
1.76294
1.05736
0.352007
35.5153
35.1216
34.6299
34.0658
33.4465
32.7805
32.0684
31.3033
30.4705
29.5496
28.5163
27.3494
26.0385
24.5932
23.048
21.4586
19.8905
18.4013
17.0282
15.7858
14.6695
13.6627
12.7442
11.8928
11.0904
10.3222
9.57726
8.84773
8.1281
7.41467
6.70498
5.99747
5.29113
4.58536
3.87982
3.1743
2.46871
1.76304
1.05738
0.351982
35.3428
34.9812
34.515
33.968
33.3571
32.6916
31.9729
31.1958
30.3483
29.4136
28.3727
27.2098
25.9191
24.5113
23.0171
21.4837
19.9665
18.5145
17.1616
15.9233
14.7986
13.776
12.8384
11.9679
11.148
10.3651
9.60839
8.86977
8.14335
7.42498
6.7118
6.00186
5.29389
4.58704
3.88079
3.17484
2.46898
1.76317
1.05742
0.351973
35.1557
34.8323
34.3958
33.8686
33.2683
32.6049
31.8813
31.094
30.2336
29.287
28.24
27.0816
25.8098
24.4362
22.9879
21.5051
20.0339
18.6164
17.2829
16.0495
14.9182
13.8818
12.927
12.0388
11.2028
10.4061
9.6382
8.89091
8.158
7.4349
6.71836
6.00609
5.29653
4.58864
3.88172
3.17535
2.46925
1.7633
1.05749
0.351991
34.971
34.6897
34.2846
33.7784
33.1898
32.5301
31.8039
31.0091
30.1389
29.1833
28.1317
26.9774
25.7211
24.3749
22.9632
21.5206
20.0864
18.697
17.38
16.1514
15.0157
13.9686
13.0001
12.0978
11.2485
10.4404
9.66321
8.90868
8.17031
7.44323
6.72385
6.00962
5.29873
4.58996
3.88248
3.17575
2.46946
1.76341
1.05757
0.352044
34.808
34.5689
34.1938
33.7072
33.1298
32.4748
31.7478
30.9486
30.072
29.1103
28.0558
26.9043
25.6587
24.3313
22.9448
21.5299
20.1214
18.7519
17.4468
16.222
15.0837
14.0295
13.0517
12.1394
11.2809
10.4647
9.68095
8.92125
8.179
7.44908
6.72768
6.01205
5.30022
4.59083
3.88296
3.176
2.46958
1.76349
1.05764
0.352131
34.6877
34.4854
34.1344
33.6632
33.0947
32.4438
31.7174
30.9163
30.0364
29.0715
28.0153
26.8652
25.6251
24.3076
22.9343
21.5341
20.1394
18.7805
17.4819
16.2593
15.1196
14.0617
13.0789
12.1613
11.2978
10.4773
9.69
8.92758
8.18328
7.45189
6.72946
6.01313
5.30083
4.59115
3.8831
3.17605
2.46959
1.7635
1.0577
0.35223
34.6321
34.4552
34.1182
33.6546
33.0903
32.4415
31.716
30.915
30.0347
29.069
28.0122
26.8617
25.6219
24.3053
22.9334
21.535
20.1417
18.7838
17.4856
16.2628
15.1224
14.0637
13.08
12.1618
11.2977
10.4768
9.68935
8.92685
8.18256
7.45122
6.72888
6.01264
5.30044
4.59084
3.88286
3.17586
2.46945
1.76341
1.05766
0.352279
34.6876
34.4852
34.1342
33.663
33.0945
32.4436
31.7172
30.9161
30.0363
29.0713
28.0152
26.8651
25.625
24.3074
22.934
21.5336
20.1387
18.7796
17.4808
16.2582
15.1184
14.0605
13.0777
12.1602
11.2968
10.4764
9.68927
8.92696
8.18278
7.45148
6.72915
6.01289
5.30066
4.59102
3.88302
3.176
2.46956
1.76349
1.0577
0.35224
34.7313
34.4905
34.1207
33.6408
33.068
32.4143
31.6856
30.8821
30.0001
29.0339
27.9781
26.8307
25.5959
24.2864
22.9232
21.5339
20.1497
18.7998
17.5077
16.289
15.1504
14.0914
13.1061
12.1851
11.3178
10.4936
9.70293
8.93759
8.19087
7.45753
6.73359
6.0161
5.30295
4.59264
3.88414
3.17678
2.47011
1.76388
1.05796
0.352315
34.8475
34.5607
34.1621
33.6647
33.0817
32.4225
31.6912
30.8871
30.0059
29.0411
27.9864
26.8393
25.6036
24.2914
22.9243
21.5307
20.1427
18.7903
17.4974
16.2793
15.1424
14.0855
13.1023
12.1832
11.3173
10.4941
9.70408
8.93903
8.19238
7.45897
6.73487
6.0172
5.30385
4.59336
3.88471
3.17722
2.47044
1.76411
1.05808
0.352297
35.0137
34.6751
34.2421
33.7226
33.1265
32.4607
31.7276
30.9253
30.0476
29.0863
28.0335
26.8846
25.6418
24.3174
22.9339
21.5224
20.1181
18.7536
17.4538
16.234
15.0996
14.048
13.0712
12.1587
11.2988
10.4807
9.69474
8.93277
8.18836
7.45652
6.73348
6.0165
5.30357
4.59333
3.88481
3.17736
2.47059
1.76422
1.05814
0.352281
35.2053
34.8149
34.3463
33.8034
33.1934
32.5214
31.7882
30.9898
30.1183
29.1629
28.1127
26.9602
25.7055
24.3604
22.9497
21.5085
20.0771
18.6923
17.3811
16.1583
15.0277
13.9842
13.0178
12.1159
11.2659
10.4563
9.67712
8.92046
8.18001
7.45103
6.73
6.01438
5.30235
4.59268
3.88451
3.17726
2.47059
1.76426
1.05818
0.352292
35.4007
34.9628
34.4607
33.8955
33.2727
32.5959
31.8642
31.072
30.2091
29.2617
28.2151
27.0582
25.788
24.416
22.9694
21.4893
20.0228
18.612
17.2863
16.0602
14.9348
13.9022
12.949
12.0608
11.2234
10.4245
9.65409
8.90421
8.16885
7.44357
6.72515
6.01133
5.30051
4.59163
3.88395
3.177
2.47049
1.76425
1.0582
0.352332
35.581
35.1029
34.5718
33.9874
33.354
32.674
31.9454
31.1609
30.3081
29.3701
28.3283
27.1669
25.8799
24.4778
22.9909
21.4668
19.961
18.5215
17.1806
15.9516
14.8328
13.8125
12.8742
12.001
11.1773
10.3901
9.6291
8.88653
8.15666
7.43536
6.71977
6.0079
5.29841
4.59039
3.88326
3.17666
2.47035
1.76421
1.05822
0.352393
35.7308
35.2213
34.6675
34.068
33.4266
32.745
32.0202
31.2438
30.4012
29.4728
28.4362
27.2714
25.9688
24.5376
23.0114
21.4443
19.9003
18.4337
17.0788
15.848
14.7362
13.7281
12.8042
11.9452
11.1344
10.3581
9.60593
8.87014
8.14534
7.42773
6.71476
6.0047
5.29642
4.58921
3.8826
3.17631
2.47019
1.76417
1.05824
0.35246
35.8378
35.3069
34.7375
34.1277
33.4811
32.7989
32.0776
31.3079
30.4738
29.5534
28.5215
27.3545
26.0399
24.5857
23.0277
21.4258
19.8511
18.3631
16.9978
15.7662
14.6605
13.6623
12.7498
11.9022
11.1014
10.3336
9.58814
8.85757
8.13665
7.42188
6.7109
6.00223
5.29489
4.58829
3.88208
3.17604
2.47007
1.76414
1.05826
0.352515
35.8934
35.3517
34.7744
34.1595
33.5103
32.828
32.1088
31.3429
30.5135
29.5978
28.5687
27.4008
26.0797
24.6128
23.0369
21.4153
19.8234
18.3237
16.9528
15.721
14.6188
13.6263
12.7202
11.8787
11.0835
10.3203
9.57852
8.85078
8.13197
7.41872
6.70883
6.0009
5.29407
4.5878
3.8818
3.1759
2.47001
1.76412
1.05828
0.352547
35.8934
35.3517
34.7744
34.1595
33.5103
32.828
32.1088
31.3429
30.5135
29.5978
28.5687
27.4008
26.0797
24.6128
23.0369
21.4153
19.8235
18.3237
16.9529
15.7211
14.619
13.6264
12.7203
11.8789
11.0836
10.3204
9.57861
8.85085
8.13203
7.41877
6.70887
6.00093
5.29409
4.58782
3.88182
3.17591
2.47001
1.76413
1.05828
0.352546
35.8378
35.3069
34.7375
34.1278
33.4812
32.799
32.0777
31.3079
30.4738
29.5534
28.5215
27.3545
26.0399
24.5857
23.0277
21.4259
19.8513
18.3634
16.9981
15.7666
14.6609
13.6627
12.7502
11.9025
11.1017
10.3339
9.58838
8.85777
8.13682
7.42201
6.71101
6.00231
5.29496
4.58834
3.88212
3.17607
2.47009
1.76415
1.05827
0.352514
35.7309
35.2214
34.6676
34.0681
33.4267
32.745
32.0203
31.2439
30.4013
29.4729
28.4362
27.2714
25.9687
24.5376
23.0114
21.4445
19.9005
18.4341
17.0793
15.8486
14.7368
13.7287
12.8048
11.9458
11.1349
10.3586
9.60631
8.87046
8.1456
7.42795
6.71493
6.00483
5.29653
4.58929
3.88266
3.17636
2.47022
1.76419
1.05825
0.352457
35.5811
35.103
34.5719
33.9875
33.3541
32.6741
31.9455
31.1611
30.3082
29.3702
28.3283
27.1669
25.8799
24.4778
22.991
21.467
19.9613
18.5221
17.1812
15.9524
14.8336
13.8133
12.875
12.0017
11.178
10.3907
9.62961
8.88696
8.15701
7.43565
6.72001
6.00809
5.29855
4.5905
3.88334
3.17671
2.47038
1.76424
1.05823
0.352389
35.4008
34.9629
34.4608
33.8956
33.2729
32.596
31.8644
31.0722
30.2092
29.2618
28.2152
27.0582
25.7881
24.416
22.9696
21.4896
20.0233
18.6126
17.2871
16.0611
14.9358
13.9031
12.95
12.0617
11.2242
10.4252
9.65469
8.90472
8.16927
7.44391
6.72543
6.01154
5.30068
4.59175
3.88404
3.17707
2.47053
1.76427
1.05821
0.352327
35.2055
34.8151
34.3465
33.8035
33.1935
32.5216
31.7883
30.99
30.1184
29.163
28.1128
26.9603
25.7056
24.3605
22.9499
21.5088
20.0777
18.693
17.3819
16.1593
15.0287
13.9853
13.0188
12.1169
11.2668
10.457
9.67779
8.92103
8.18049
7.45142
6.73031
6.01462
5.30254
4.59282
3.88461
3.17733
2.47063
1.76429
1.05819
0.352285
35.0138
34.6752
34.2423
33.7228
33.1266
32.4608
31.7278
30.9254
30.0477
29.0864
28.0336
26.8847
25.6419
24.3175
22.9342
21.5229
20.1187
18.7543
17.4547
16.2351
15.1007
14.0491
13.0723
12.1597
11.2997
10.4816
9.69545
8.93337
8.18886
7.45692
6.7338
6.01674
5.30376
4.59347
3.8849
3.17743
2.47063
1.76425
1.05815
0.352273
34.8477
34.5609
34.1622
33.6648
33.0819
32.4226
31.6913
30.8873
30.0061
29.0412
27.9865
26.8394
25.6037
24.2916
22.9245
21.5311
20.1433
18.7911
17.4984
16.2804
15.1435
14.0867
13.1035
12.1842
11.3183
10.495
9.70481
8.93964
8.19288
7.45937
6.73519
6.01745
5.30404
4.5935
3.88481
3.17728
2.47047
1.76412
1.05809
0.352288
34.7314
34.4907
34.1209
33.6409
33.0682
32.4145
31.6857
30.8822
30.0002
29.034
27.9782
26.8308
25.5961
24.2866
22.9235
21.5344
20.1503
18.8006
17.5087
16.2901
15.1515
14.0926
13.1072
12.1861
11.3187
10.4944
9.70364
8.93818
8.19136
7.45792
6.7339
6.01634
5.30312
4.59276
3.88422
3.17683
2.47013
1.76389
1.05796
0.352305
34.6877
34.4854
34.1344
33.6632
33.0947
32.4438
31.7174
30.9163
30.0365
29.0715
28.0153
26.8652
25.6251
24.3076
22.9343
21.5341
20.1393
18.7804
17.4818
16.2593
15.1195
14.0616
13.0788
12.1612
11.2977
10.4772
9.68995
8.92753
8.18324
7.45185
6.72943
6.0131
5.30081
4.59113
3.88309
3.17604
2.46958
1.76349
1.05769
0.352229
34.8078
34.5688
34.1936
33.7071
33.1297
32.4746
31.7476
30.9484
30.0718
29.1101
28.0556
26.9042
25.6586
24.3312
22.9445
21.5294
20.1207
18.751
17.4457
16.2209
15.0825
14.0283
13.0505
12.1384
11.2799
10.4639
9.6802
8.92063
8.17848
7.44866
6.72736
6.0118
5.30003
4.59069
3.88287
3.17594
2.46955
1.76348
1.05765
0.352142
34.8475
34.5607
34.1621
33.6647
33.0817
32.4224
31.6912
30.8871
30.0059
29.041
27.9864
26.8393
25.6035
24.2914
22.9242
21.5307
20.1427
18.7903
17.4975
16.2793
15.1424
14.0856
13.1024
12.1832
11.3173
10.4942
9.70409
8.93904
8.19238
7.45897
6.73488
6.0172
5.30386
4.59337
3.88471
3.17722
2.47044
1.76411
1.05808
0.352297
34.9595
34.622
34.1906
33.6732
33.0783
32.4119
31.6763
30.8699
29.9878
29.0231
27.9697
26.8247
25.5914
24.282
22.9178
21.5275
20.1431
18.7947
17.5057
16.291
15.1564
14.1009
13.1179
12.198
11.3308
10.5059
9.71407
8.94725
8.19899
7.46417
6.73889
6.02026
5.30614
4.59506
3.88595
3.17812
2.47109
1.76456
1.05835
0.352327
35.126
34.7318
34.2624
33.7204
33.1104
32.4358
31.6969
30.8907
30.0108
29.0492
27.9979
26.8525
25.6149
24.2969
22.9209
21.5177
20.1224
18.7667
17.4749
16.2613
15.1305
14.08
13.1022
12.1871
11.3238
10.5019
9.71213
8.94671
8.19929
7.46493
6.73985
6.02124
5.30706
4.59587
3.88663
3.17867
2.47151
1.76487
1.05853
0.352358
35.3221
34.8706
34.3617
33.7938
33.1681
32.4858
31.7452
30.9417
30.0672
29.1113
28.0632
26.9155
25.6677
24.3311
22.9302
21.5003
20.0814
18.7096
17.4102
16.1966
15.0714
14.0295
13.0615
12.1557
11.3006
10.4854
9.70081
8.93927
8.19463
7.46218
6.73836
6.02056
5.30687
4.59594
3.88684
3.17892
2.47176
1.76507
1.05867
0.352421
35.5246
35.0197
34.4736
33.881
33.2408
32.5521
31.8119
31.0137
30.1473
29.1995
28.156
27.005
25.743
24.3801
22.9436
21.4755
20.0235
18.6289
17.319
16.1057
14.9882
13.9582
13.0033
12.1102
11.2663
10.4604
9.68319
8.92719
8.18662
7.45705
6.73522
6.01874
5.3059
4.5955
3.88671
3.17895
2.47187
1.7652
1.05879
0.352519
35.7128
35.1621
34.5837
33.9697
33.3173
32.6242
31.8861
31.095
30.2386
29.3009
28.2635
27.1098
25.8318
24.4381
22.9593
21.4456
19.9544
18.5339
17.213
16.0009
14.8931
13.877
12.9372
12.0586
11.2273
10.4318
9.6628
8.91306
8.17708
7.45081
6.73126
6.01633
5.30452
4.59477
3.88637
3.17885
2.47189
1.76528
1.05889
0.352638
35.8698
35.2831
34.6791
34.0482
33.3866
32.6909
31.9559
31.1725
30.3267
29.3998
28.3695
27.2144
25.9215
24.4972
22.9752
21.4146
19.8839
18.4382
17.1076
15.8983
14.8009
13.7989
12.8741
12.0093
11.1901
10.4045
9.64333
8.8995
8.16788
7.44473
6.72737
6.01393
5.3031
4.59398
3.88598
3.1787
2.47186
1.76532
1.05898
0.352756
35.9822
35.3707
34.7491
34.1067
33.439
32.7421
32.0102
31.2334
30.3965
29.4789
28.4554
27.3002
25.9961
24.547
22.9886
21.3883
19.8246
18.3589
17.0218
15.8158
14.7275
13.7372
12.8245
11.9709
11.1612
10.3833
9.62817
8.88893
8.1607
7.43997
6.7243
6.01202
5.30196
4.59334
3.88565
3.17856
2.47183
1.76535
1.05905
0.352851
36.0408
35.4167
34.7861
34.1379
33.4672
32.7698
32.0398
31.2668
30.4351
29.523
28.5036
27.3489
26.039
24.5759
22.9964
21.373
19.7902
18.3136
16.9733
15.7696
14.6869
13.7033
12.7973
11.9498
11.1454
10.3718
9.61992
8.88319
8.15679
7.43738
6.72264
6.01098
5.30133
4.59299
3.88547
3.17848
2.47181
1.76537
1.05908
0.352904
36.0408
35.4167
34.7861
34.1379
33.4672
32.7699
32.0398
31.2668
30.4352
29.523
28.5036
27.3489
26.039
24.5759
22.9964
21.373
19.7902
18.3137
16.9734
15.7698
14.687
13.7034
12.7974
11.95
11.1455
10.3719
9.62
8.88326
8.15685
7.43743
6.72267
6.01101
5.30136
4.59301
3.88548
3.17849
2.47182
1.76537
1.05908
0.352903
35.9823
35.3708
34.7491
34.1068
33.439
32.7422
32.0103
31.2334
30.3966
29.479
28.4554
27.3002
25.9961
24.5469
22.9886
21.3884
19.8247
18.3592
17.0221
15.8162
14.7279
13.7376
12.8249
11.9712
11.1615
10.3836
9.6284
8.88913
8.16086
7.4401
6.72441
6.0121
5.30202
4.59339
3.88569
3.17858
2.47185
1.76536
1.05905
0.352849
35.8699
35.2832
34.6791
34.0483
33.3867
32.691
31.956
31.1726
30.3268
29.3999
28.3696
27.2144
25.9215
24.4971
22.9752
21.4148
19.8841
18.4386
17.1082
15.8989
14.8015
13.7995
12.8746
12.0099
11.1906
10.405
9.6437
8.89981
8.16814
7.44494
6.72754
6.01406
5.3032
4.59406
3.88604
3.17874
2.47189
1.76534
1.05899
0.352753
35.7129
35.1622
34.5838
33.9698
33.3174
32.6243
31.8862
31.0951
30.2388
29.301
28.2636
27.1099
25.8318
24.438
22.9594
21.4458
19.9548
18.5344
17.2136
16.0017
14.8939
13.8778
12.938
12.0593
11.2279
10.4324
9.66328
8.91347
8.17743
7.45109
6.73149
6.01651
5.30465
4.59487
3.88645
3.1789
2.47192
1.76529
1.0589
0.352633
35.5247
35.0199
34.4737
33.8811
33.2409
32.5523
31.8121
31.0139
30.1474
29.1996
28.1561
27.0051
25.7431
24.3801
22.9437
21.4758
20.0239
18.6295
17.3198
16.1065
14.9891
13.9591
13.0042
12.1111
11.2671
10.4611
9.68377
8.92769
8.18703
7.45738
6.73549
6.01895
5.30606
4.59562
3.88679
3.17901
2.4719
1.76522
1.0588
0.352513
35.3223
34.8708
34.3619
33.7939
33.1683
32.4859
31.7454
30.9419
30.0674
29.1114
28.0634
26.9156
25.6678
24.3312
22.9304
21.5006
20.082
18.7103
17.411
16.1975
15.0724
14.0306
13.0625
12.1566
11.3014
10.4861
9.70146
8.93982
8.19509
7.46255
6.73866
6.02079
5.30705
4.59607
3.88693
3.17898
2.4718
1.76509
1.05868
0.352414
35.1261
34.732
34.2625
33.7206
33.1106
32.436
31.6971
30.8908
30.0109
29.0493
27.9981
26.8526
25.615
24.2971
22.9211
21.5181
20.123
18.7675
17.4759
16.2623
15.1316
14.0811
13.1033
12.1881
11.3247
10.5027
9.71283
8.94729
8.19978
7.46532
6.74016
6.02148
5.30724
4.596
3.88673
3.17873
2.47155
1.76488
1.05854
0.35235
34.9597
34.6222
34.1908
33.6734
33.0785
32.4121
31.6765
30.8701
29.9879
29.0232
27.9698
26.8248
25.5916
24.2822
22.9181
21.5279
20.1438
18.7955
17.5067
16.292
15.1576
14.102
13.119
12.1991
11.3317
10.5068
9.71478
8.94785
8.19948
7.46456
6.7392
6.02049
5.30632
4.59519
3.88604
3.17818
2.47112
1.76457
1.05835
0.352318
34.8477
34.5609
34.1622
33.6648
33.0819
32.4226
31.6913
30.8873
30.0061
29.0412
27.9865
26.8394
25.6036
24.2915
22.9245
21.5311
20.1433
18.7912
17.4985
16.2805
15.1436
14.0867
13.1035
12.1843
11.3183
10.495
9.70479
8.93962
8.19286
7.45935
6.73517
6.01742
5.30402
4.59348
3.88479
3.17726
2.47046
1.76411
1.05808
0.352285
34.808
34.5689
34.1938
33.7072
33.1298
32.4748
31.7478
30.9486
30.072
29.1103
28.0558
26.9043
25.6587
24.3313
22.9448
21.5299
20.1214
18.7519
17.4468
16.222
15.0836
14.0294
13.0516
12.1394
11.2808
10.4646
9.68086
8.92117
8.17892
7.44901
6.72762
6.012
5.30017
4.59079
3.88292
3.17597
2.46956
1.76347
1.05763
0.352125
34.9708
34.6896
34.2845
33.7783
33.1896
32.5299
31.8037
31.0089
30.1387
29.1831
28.1316
26.9773
25.7209
24.3747
22.9629
21.5201
20.0858
18.6962
17.3791
16.1503
15.0145
13.9674
12.999
12.0967
11.2475
10.4395
9.66249
8.90806
8.1698
7.44282
6.72353
6.00937
5.29854
4.58982
3.88238
3.17569
2.46943
1.7634
1.05757
0.352056
35.0136
34.6751
34.2421
33.7226
33.1265
32.4606
31.7276
30.9252
30.0475
29.0862
28.0334
26.8845
25.6417
24.3173
22.9338
21.5224
20.1181
18.7536
17.4538
16.2341
15.0997
14.048
13.0713
12.1587
11.2989
10.4808
9.69476
8.93278
8.18837
7.45653
6.73349
6.0165
5.30358
4.59333
3.88481
3.17736
2.47059
1.76423
1.05814
0.352281
35.126
34.7318
34.2624
33.7204
33.1104
32.4358
31.6969
30.8906
30.0107
29.0491
27.9979
26.8525
25.6149
24.2969
22.9208
21.5177
20.1223
18.7667
17.4749
16.2613
15.1305
14.08
13.1023
12.1871
11.3238
10.5019
9.71215
8.94672
8.1993
7.46494
6.73985
6.02124
5.30706
4.59587
3.88663
3.17867