# vtk DataFile Version 2.0
I need something to put here
ASCII

DATASET STRUCTURED_GRID
DIMENSIONS 15 11 21
POINTS 3465 float
0.000000 0.000000 0.000000
0.100000 0.000000 0.000000
0.200000 0.000000 0.000000
0.300000 0.000000 0.000000
0.400000 0.000000 0.000000
0.500000 0.000000 0.000000
0.600000 0.000000 0.000000
0.700000 0.000000 0.000000
0.800000 0.000000 0.000000
0.900000 0.000000 0.000000
1.000000 0.000000 0.000000
1.100000 0.000000 0.000000
1.200000 0.000000 0.000000
1.300000 0.000000 0.000000
1.400000 0.000000 0.000000
0.000000 0.100000 0.000000
0.100000 0.100000 0.000000
0.200000 0.100000 0.000000
0.300000 0.100000 0.000000
0.400000 0.100000 0.000000
0.500000 0.100000 0.000000
0.600000 0.100000 0.000000
0.700000 0.100000 0.000000
0.800000 0.100000 0.000000
0.900000 0.100000 0.000000
1.000000 0.100000 0.000000
1.100000 0.100000 0.000000
1.200000 0.100000 0.000000
1.300000 0.100000 0.000000
1.400000 0.100000 0.000000
0.000000 0.200000 0.000000
0.100000 0.200000 0.000000
0.200000 0.200000 0.000000
0.300000 0.200000 0.000000
0.400000 0.200000 0.000000
0.500000 0.200000 0.000000
0.600000 0.200000 0.000000
0.700000 0.200000 0.000000
0.800000 0.200000 0.000000
0.900000 0.200000 0.000000
1.000000 0.200000 0.000000
1.100000 0.200000 0.000000
1.200000 0.200000 0.000000
1.300000 0.200000 0.000000
1.400000 0.200000 0.000000
0.000000 0.300000 0.000000
0.100000 0.300000 0.000000
0.200000 0.300000 0.000000
0.300000 0.300000 0.000000
0.400000 0.300000 0.000000
0.500000 0.300000 0.000000
0.600000 0.300000 0.000000
0.700000 0.300000 0.000000
0.800000 0.300000 0.000000
0.900000 0.300000 0.000000
1.000000 0.300000 0.000000
1.100000 0.300000 0.000000
1.200000 0.300000 0.000000
1.300000 0.300000 0.000000
1.400000 0.300000 0.000000
0.000000 0.400000 0.000000
0.100000 0.400000 0.000000
0.200000 0.400000 0.000000
0.300000 0.400000 0.000000
0.400000 0.400000 0.000000
0.500000 0.400000 0.000000
0.600000 0.400000 0.000000
0.700000 0.400000 0.000000
0.800000 0.400000 0.000000
0.900000 0.400000 0.000000
1.000000 0.400000 0.000000
1.100000 0.400000 0.000000
1.200000 0.400000 0.000000
1.300000 0.400000 0.000000
1.400000 0.400000 0.000000
0.000000 0.500000 0.000000
0.100000 0.500000 0.000000
0.200000 0.500000 0.000000
0.300000 0.500000 0.000000
0.400000 0.500000 0.000000
0.500000 0.500000 0.000000
0.600000 0.500000 0.000000
0.700000 0.500000 0.000000
0.800000 0.500000 0.000000
0.900000 0.500000 0.000000
1.000000 0.500000 0.000000
1.100000 0.500000 0.000000
1.200000 0.500000 0.000000
1.300000 0.500000 0.000000
1.400000 0.500000 0.000000
0.000000 0.600000 0.000000
0.100000 0.600000 0.000000
0.200000 0.600000 0.000000
0.300000 0.600000 0.000000
0.400000 0.600000 0.000000
0.500000 0.600000 0.000000
0.600000 0.600000 0.000000
0.700000 0.600000 0.000000
0.800000 0.600000 0.000000
0.900000 0.600000 0.000000
1.000000 0.600000 0.000000
1.100000 0.600000 0.000000
1.200000 0.600000 0.000000
1.300000 0.600000 0.000000
1.400000 0.600000 0.000000
0.000000 0.700000 0.000000
0.100000 0.700000 0.000000
0.200000 0.700000 0.000000
0.300000 0.700000 0.000000
0.400000 0.700000 0.000000
0.500000 0.700000 0.000000
0.600000 0.700000 0.000000
0.700000 0.700000 0.000000
0.800000 0.700000 0.000000
0.900000 0.700000 0.000000
1.000000 0.700000 0.000000
1.100000 0.700000 0.000000
1.200000 0.700000 0.000000
1.300000 0.700000 0.000000
1.400000 0.700000 0.000000
0.000000 0.800000 0.000000
0.100000 0.800000 0.000000
0.200000 0.800000 0.000000
0.300000 0.800000 0.000000
0.400000 0.800000 0.000000
0.500000 0.800000 0.000000
0.600000 0.800000 0.000000
0.700000 0.800000 0.000000
0.800000 0.800000 0.000000
0.900000 0.800000 0.000000
1.000000 0.800000 0.000000
1.100000 0.800000 0.000000
1.200000 0.800000 0.000000
1.300000 0.800000 0.000000
1.400000 0.800000 0.000000
0.000000 0.900000 0.000000
0.100000 0.900000 0.000000
0.200000 0.900000 0.000000
0.300000 0.900000 0.000000
0.400000 0.900000 0.000000
0.500000 0.900000 0.000000
0.600000 0.900000 0.000000
0.700000 0.900000 0.000000
0.800000 0.900000 0.000000
0.900000 0.900000 0.000000
1.000000 0.900000 0.000000
1.100000 0.900000 0.000000
1.200000 0.900000 0.000000
1.300000 0.900000 0.000000
1.400000 0.900000 0.000000
0.000000 1.000000 0.000000
0.100000 1.000000 0.000000
0.200000 1.000000 0.000000
0.300000 1.000000 0.000000
0.400000 1.000000 0.000000
0.500000 1.000000 0.000000
0.600000 1.000000 0.000000
0.700000 1.000000 0.000000
0.800000 1.000000 0.000000
0.900000 1.000000 0.000000
1.000000 1.000000 0.000000
1.100000 1.000000 0.000000
1.200000 1.000000 0.000000
1.300000 1.000000 0.000000
1.400000 1.000000 0.000000
0.000000 0.000000 0.100000
0.100000 0.000000 0.100000
0.200000 0.000000 0.100000
0.300000 0.000000 0.100000
0.400000 0.000000 0.100000
0.500000 0.000000 0.100000
0.600000 0.000000 0.100000
0.700000 0.000000 0.100000
0.800000 0.000000 0.100000
0.900000 0.000000 0.100000
1.000000 0.000000 0.100000
1.100000 0.000000 0.100000
1.200000 0.000000 0.100000
1.300000 0.000000 0.100000
1.400000 0.000000 0.100000
0.000000 0.100000 0.100000
0.100000 0.100000 0.100000
0.200000 0.100000 0.100000
0.300000 0.100000 0.100000
0.400000 0.100000 0.100000
0.500000 0.100000 0.100000
0.600000 0.100000 0.100000
0.700000 0.100000 0.100000
0.800000 0.100000 0.100000
0.900000 0.100000 0.100000
1.000000 0.100000 0.100000
1.100000 0.100000 0.100000
1.200000 0.100000 0.100000
1.300000 0.100000 0.100000
1.400000 0.100000 0.100000
0.000000 0.200000 0.100000
0.100000 0.200000 0.100000
0.200000 0.200000 0.100000
0.300000 0.200000 0.100000
0.400000 0.200000 0.100000
0.500000 0.200000 0.100000
0.600000 0.200000 0.100000
0.700000 0.200000 0.100000
0.800000 0.200000 0.100000
0.900000 0.200000 0.100000
1.000000 0.200000 0.100000
1.100000 0.200000 0.100000
1.200000 0.200000 0.100000
1.300000 0.200000 0.100000
1.400000 0.200000 0.100000
0.000000 0.300000 0.100000
0.100000 0.300000 0.100000
0.200000 0.300000 0.100000
0.300000 0.300000 0.100000
0.400000 0.300000 0.100000
0.500000 0.300000 0.100000
0.600000 0.300000 0.100000
0.700000 0.300000 0.100000
0.800000 0.300000 0.100000
0.900000 0.300000 0.100000
1.000000 0.300000 0.100000
1.100000 0.300000 0.100000
1.200000 0.300000 0.100000
1.300000 0.300000 0.100000
1.400000 0.300000 0.100000
0.000000 0.400000 0.100000
0.100000 0.400000 0.100000
0.200000 0.400000 0.100000
0.300000 0.400000 0.100000
0.400000 0.400000 0.100000
0.500000 0.400000 0.100000
0.600000 0.400000 0.100000
0.700000 0.400000 0.100000
0.800000 0.400000 0.100000
0.900000 0.400000 0.100000
1.000000 0.400000 0.100000
1.100000 0.400000 0.100000
1.200000 0.400000 0.100000
1.300000 0.400000 0.100000
1.400000 0.400000 0.100000
0.000000 0.500000 0.100000
0.100000 0.500000 0.100000
0.200000 0.500000 0.100000
0.300000 0.500000 0.100000
0.400000 0.500000 0.100000
0.500000 0.500000 0.100000
0.600000 0.500000 0.100000
0.700000 0.500000 0.100000
0.800000 0.500000 0.100000
0.900000 0.500000 0.100000
1.000000 0.500000 0.100000
1.100000 0.500000 0.100000
1.200000 0.500000 0.100000
1.300000 0.500000 0.100000
1.400000 0.500000 0.100000
0.000000 0.600000 0.100000
0.100000 0.600000 0.100000
0.200000 0.600000 0.100000
0.300000 0.600000 0.100000
0.400000 0.600000 0.100000
0.500000 0.600000 0.100000
0.600000 0.600000 0.100000
0.700000 0.600000 0.100000
0.800000 0.600000 0.100000
0.900000 0.600000 0.100000
1.000000 0.600000 0.100000
1.100000 0.600000 0.100000
1.200000 0.600000 0.100000
1.300000 0.600000 0.100000
1.400000 0.600000 0.100000
0.000000 0.700000 0.100000
0.100000 0.700000 0.100000
0.200000 0.700000 0.100000
0.300000 0.700000 0.100000
0.400000 0.700000 0.100000
0.500000 0.700000 0.100000
0.600000 0.700000 0.100000
0.700000 0.700000 0.100000
0.800000 0.700000 0.100000
0.900000 0.700000 0.100000
1.000000 0.700000 0.100000
1.100000 0.700000 0.100000
1.200000 0.700000 0.100000
1.300000 0.700000 0.100000
1.400000 0.700000 0.100000
0.000000 0.800000 0.100000
0.100000 0.800000 0.100000
0.200000 0.800000 0.100000
0.300000 0.800000 0.100000
0.400000 0.800000 0.100000
0.500000 0.800000 0.100000
0.600000 0.800000 0.100000
0.700000 0.800000 0.100000
0.800000 0.800000 0.100000
0.900000 0.800000 0.100000
1.000000 0.800000 0.100000
1.100000 0.800000 0.100000
1.200000 0.800000 0.100000
1.300000 0.800000 0.100000
1.400000 0.800000 0.100000
0.000000 0.900000 0.100000
0.100000 0.900000 0.100000
0.200000 0.900000 0.100000
0.300000 0.900000 0.100000
0.400000 0.900000 0.100000
0.500000 0.900000 0.100000
0.600000 0.900000 0.100000
0.700000 0.900000 0.100000
0.800000 0.900000 0.100000
0.900000 0.900000 0.100000
1.000000 0.900000 0.100000
1.100000 0.900000 0.100000
1.200000 0.900000 0.100000
1.300000 0.900000 0.100000
1.400000 0.900000 0.100000
0.000000 1.000000 0.100000
0.100000 1.000000 0.100000
0.200000 1.000000 0.100000
0.300000 1.000000 0.100000
0.400000 1.000000 0.100000
0.500000 1.000000 0.100000
0.600000 1.000000 0.100000
0.700000 1.000000 0.100000
0.800000 1.000000 0.100000
0.900000 1.000000 0.100000
1.000000 1.000000 0.100000
1.100000 1.000000 0.100000
1.200000 1.000000 0.100000
1.300000 1.000000 0.100000
1.400000 1.000000 0.100000
0.000000 0.000000 0.200000
0.100000 0.000000 0.200000
0.200000 0.000000 0.200000
0.300000 0.000000 0.200000
0.400000 0.000000 0.200000
0.500000 0.000000 0.200000
0.600000 0.000000 0.200000
0.700000 0.000000 0.200000
0.800000 0.000000 0.200000
0.900000 0.000000 0.200000
1.000000 0.000000 0.200000
1.100000 0.000000 0.200000
1.200000 0.000000 0.200000
1.300000 0.000000 0.200000
1.400000 0.000000 0.200000
0.000000 0.100000 0.200000
0.100000 0.100000 0.200000
0.200000 0.100000 0.200000
0.300000 0.100000 0.200000
0.400000 0.100000 0.200000
0.500000 0.100000 0.200000
0.600000 0.100000 0.200000
0.700000 0.100000 0.200000
0.800000 0.100000 0.200000
0.900000 0.100000 0.200000
1.000000 0.100000 0.200000
1.100000 0.100000 0.200000
1.200000 0.100000 0.200000
1.300000 0.100000 0.200000
1.400000 0.100000 0.200000
0.000000 0.200000 0.200000
0.100000 0.200000 0.200000
0.200000 0.200000 0.200000
0.300000 0.200000 0.200000
0.400000 0.200000 0.200000
[...]
CELL_DATA 2800
SCALARS pressure float 1
LOOKUP_TABLE default
39.1381
36.0183
33.6797
31.925
30.5353
29.3632
28.3164
27.3362
26.3828
25.4292
24.4569
23.4556
22.4221
21.3606
41.4874
36.3774
33.5626
31.7435
30.3854
29.256
28.2442
27.2891
26.3533
25.4115
24.447
23.4507
22.4201
21.3598
44.8464
37.3571
33.7246
31.6589
30.2511
29.1346
28.1512
27.225
26.3135
25.3904
24.4392
23.4506
22.4228
21.3611
48.3523
38.6086
34.0924
31.7
30.1865
29.0498
28.078
27.1731
26.2839
25.3799
24.4422
23.4608
22.4333
21.366
51.6345
39.9035
34.5583
31.8288
30.1866
29.0101
28.0364
27.1451
26.2739
25.3866
24.4607
23.484
22.4533
21.3752
54.5142
41.1069
35.0394
32.0006
30.2303
29.0071
28.0244
27.1408
26.2838
25.4105
24.4942
23.5194
22.4817
21.3882
56.8948
42.1381
35.4781
32.1781
30.2947
29.0272
28.0331
27.1542
26.3083
25.4464
24.5373
23.5622
22.5149
21.4032
58.7191
42.9468
35.8359
32.3337
30.3605
29.0564
28.0521
27.1762
26.3388
25.4858
24.5818
23.6048
22.5472
21.4174
59.9523
43.5015
36.0875
32.4479
30.4129
29.0831
28.0715
27.1975
26.366
25.519
24.6184
23.6392
22.5729
21.4282
60.5738
43.7834
36.2172
32.5083
30.4419
29.0989
28.0834
27.2104
26.3821
25.5383
24.6392
23.6586
22.5872
21.4343
36.7691
35.3388
33.5982
32.0097
30.6421
29.4527
28.3831
27.3836
26.416
25.4523
24.4731
23.4669
22.4298
21.3655
37.4659
35.5283
33.5692
31.928
30.565
29.3926
28.3382
27.3494
26.3887
25.4296
24.454
23.4515
22.4188
21.3594
38.8636
36.2023
33.801
31.9619
30.5275
29.3383
28.2881
27.3098
26.3604
25.4111
24.4431
23.4459
22.4162
21.3578
40.5172
37.1155
34.2036
32.1003
30.5478
29.3147
28.255
27.2819
26.3428
25.404
24.4443
23.4519
22.4227
21.3608
42.1685
38.0941
34.6863
32.3062
30.6177
29.3256
28.2464
27.273
26.3415
25.4121
24.4597
23.47
22.4382
21.3683
43.6728
39.0245
35.1766
32.5397
30.7176
29.363
28.2599
27.2826
26.3563
25.4345
24.4877
23.4988
22.4613
21.3796
44.9458
39.8338
35.6214
32.766
30.8263
29.4142
28.2876
27.3051
26.3823
25.4665
24.5239
23.534
22.4888
21.3929
45.9363
40.4748
35.9837
32.9584
30.9253
29.4665
28.32
27.3325
26.4122
25.5009
24.5611
23.5692
22.5158
21.4057
46.6122
40.9173
36.2383
33.0972
30.9999
29.5083
28.3477
27.3566
26.438
25.5297
24.5916
23.5976
22.5372
21.4156
46.9547
41.1429
36.3694
33.1699
31.0399
29.5316
28.3637
27.3708
26.453
25.5463
24.6089
23.6136
22.5492
21.4211
34.8473
34.1902
33.0496
31.7936
30.5847
29.4635
28.42
27.4282
26.461
25.4946
24.5112
23.4993
22.455
21.3819
34.972
34.2128
32.9962
31.7194
30.5161
29.407
28.3736
27.3884
26.4248
25.4609
24.4802
23.4727
22.4351
21.3709
35.485
34.5487
33.1488
31.761
30.5052
29.3765
28.3395
27.3571
26.3987
25.4404
24.465
23.4623
22.4287
21.3676
36.2195
35.0712
33.4389
31.8928
30.5491
29.3789
28.3265
27.3424
26.3883
25.4363
24.4667
23.4677
22.4348
21.3713
37.0272
35.6714
33.8004
32.0817
30.6351
29.4117
28.3366
27.3468
26.3957
25.4496
24.4852
23.488
22.4524
21.3812
37.8063
36.2674
34.1773
32.294
30.7452
29.4661
28.3655
27.3682
26.4189
25.4781
24.518
23.5209
22.4794
21.3965
38.4902
36.801
34.5258
32.5001
30.8602
29.5302
28.4055
27.4005
26.4526
25.5164
24.5599
23.5614
22.5119
21.4149
39.0351
37.2319
34.8135
32.6757
30.9631
29.5916
28.4469
27.4355
26.4888
25.5566
24.6028
23.6021
22.5439
21.4326
39.4127
37.5331
35.0175
32.803
31.0399
29.6394
28.4807
27.4648
26.5191
25.5899
24.6378
23.6348
22.569
21.4457
39.6057
37.6878
35.1232
32.8697
31.081
29.6656
28.4997
27.4816
26.5364
25.6088
24.6575
23.6531
22.5828
21.4525
33.4308
33.0844
32.3412
31.3948
30.3859
29.3826
28.4052
27.4496
26.5014
25.544
24.5624
23.5465
22.4931
21.4066
33.3839
33.0405
32.2735
31.3199
30.316
29.3211
28.3505
27.3989
26.4526
25.4966
24.5179
23.5078
22.4639
21.3903
33.5245
33.1733
32.3452
31.3395
30.3047
29.2952
28.3198
27.3684
26.4248
25.4728
24.4987
23.4937
22.455
21.3864
33.824
33.4363
32.5187
31.4324
30.3434
29.3038
28.3151
27.3607
26.4197
25.4728
24.504
23.5024
22.4643
21.3931
34.2095
33.7718
32.7529
31.5737
30.4195
29.3415
28.3346
27.3752
26.437
25.4959
24.5323
23.5322
22.4903
21.41
34.6152
34.1265
33.009
31.7377
30.5171
29.3991
28.3727
27.408
26.473
25.5387
24.5804
23.5802
22.5305
21.436
34.9913
34.4576
33.2535
31.9003
30.6198
29.4652
28.4209
27.4519
26.5209
25.5942
24.6418
23.6401
22.5793
21.4682
35.3017
34.7326
33.4599
32.0413
30.7124
29.5279
28.4694
27.4974
26.571
25.6519
24.705
23.7011
22.6273
21.4992
35.5217
34.9283
33.6084
32.1446
30.782
29.5767
28.5083
27.5348
26.6121
25.6991
24.7562
23.7496
22.6642
21.5202
35.6356
35.0299
33.6861
32.1991
30.8193
29.6034
28.5301
27.5559
26.6354
25.7256
24.7847
23.7762
22.6839
21.5302
32.4058
32.1738
31.6598
30.9434
30.1163
29.241
28.3484
27.4471
26.5327
25.5945
24.6209
23.6033
22.5396
21.436
32.3222
32.1165
31.5949
30.8737
30.0479
29.1761
28.286
27.3855
26.4707
25.5327
24.5619
23.5516
22.5005
21.4143
32.3134
32.1475
31.615
30.8726
30.0303
29.1488
28.2546
27.3534
26.4403
25.5059
24.54
23.5355
22.4908
21.4109
32.4098
32.263
31.7054
30.9276
30.056
29.1561
28.2532
27.3507
26.4412
25.5128
24.5529
23.5521
22.5074
21.4237
32.5832
32.4382
31.8446
31.0226
30.1149
29.1918
28.2783
27.375
26.4714
25.5517
24.5992
23.5999
22.5491
21.4532
32.7939
32.6414
32.0078
31.1395
30.1942
29.2473
28.3234
27.4211
26.5262
25.6189
24.6761
23.677
22.6136
21.5005
33.0056
32.8424
32.1709
31.2599
30.2801
29.3117
28.3796
27.4803
26.5972
25.7059
24.7762
23.7765
22.693
21.5622
33.1894
33.0158
32.3128
31.3669
30.359
29.3736
28.4358
27.5412
26.6708
25.7972
24.8825
23.8823
22.7704
21.6229
33.3238
33.1423
32.417
31.4466
30.4191
29.4221
28.481
27.5908
26.731
25.8714
24.9675
23.9644
22.8286
21.6584
33.3946
33.209
32.4722
31.4891
30.4517
29.4488
28.5063
27.6187
26.7649
25.9127
25.0141
24.0084
22.8585
21.6731
31.6675
31.4733
31.0846
30.5225
29.8382
29.0776
28.2703
27.4296
26.5563
25.6437
24.6823
23.6646
22.59
21.4665
31.5878
31.4213
31.0296
30.4617
29.7741
29.0117
28.2022
27.3583
26.4816
25.5674
24.6085
23.5997
22.541
21.44
31.5232
31.4063
31.0222
30.4476
29.7513
28.9824
28.1694
27.3246
26.4494
25.5389
24.5856
23.5835
22.5322
21.4385
31.5257
31.4437
31.0617
30.4751
29.7653
28.987
28.1701
27.327
26.458
25.5561
24.6109
23.6129
22.5602
21.4607
31.5917
31.5276
31.139
30.5354
29.8089
29.0198
28.2003
27.3625
26.5052
25.6179
24.6846
23.6887
22.6253
21.5107
31.6987
31.6408
31.2397
30.6163
29.8722
29.0731
28.2533
27.4252
26.5862
25.7221
24.8083
23.8142
22.7266
21.5957
31.8206
31.7624
31.3467
30.7039
29.9436
29.1365
28.3192
27.505
26.691
25.8605
24.9784
23.9895
22.8507
21.7158
31.9341
31.873
31.4437
30.7843
30.011
29.1984
28.3856
27.5872
26.8012
26.01
25.1709
24.197
22.9627
21.8379
32.0207
31.9563
31.5168
30.8456
30.0633
29.2476
28.4392
27.6541
26.8909
26.1305
25.3207
24.3483
23.0496
21.8934
32.0673
32.001
31.5561
30.8787
30.0919
29.2748
28.4692
27.6916
26.941
26.1966
25.4008
24.4264
23.0922
21.9114
31.143
30.9584
30.6368
30.1733
29.5921
28.9234
28.1908
27.4072
26.5751
25.6896
24.7419
23.7251
22.6392
21.4949
31.0761
30.9156
30.5921
30.121
29.5327
28.8575
28.1181
27.3273
26.4887
25.5996
24.654
23.6474
22.581
21.4643
30.9938
30.8817
30.5719
30.1003
29.5071
28.827
28.0843
27.2925
26.4557
25.5709
24.6319
23.6329
22.5745
21.4659
30.9538
30.8795
30.5826
30.1107
29.5131
28.8297
28.0875
27.3009
26.4737
25.6013
24.6733
23.679
22.6166
21.5002
30.9654
30.9132
30.6227
30.1481
29.5459
28.861
28.1235
27.3491
26.5412
25.6921
24.7837
23.7925
22.7104
21.5779
31.0168
30.9747
30.6843
30.2048
29.598
28.9139
28.1857
27.4313
26.655
25.8464
24.976
23.9923
22.8545
21.7195
31.0892
31.0495
30.7556
30.27
29.6595
28.9783
28.2634
27.5363
26.8047
26.0607
25.2664
24.3178
23.0119
21.9352
31.1633
31.1222
30.8234
30.3322
29.7191
29.0423
28.3424
27.6453
26.9655
26.305
25.6381
24.8264
23.1583
22.1487
31.2227
31.1793
30.8762
30.3807
29.7662
29.0936
28.4064
27.7343
27.0959
26.4975
25.9069
25.1298
23.3283
22.2086
31.2556
31.2106
30.9051
30.4073
29.7923
29.1222
28.4423
27.784
27.1681
26.6013
26.046
25.2804
23.3836
22.2205
30.784
30.5998
30.3139
29.9108
29.3993
28.7977
28.1233
27.3869
26.5905
25.7293
24.7942
23.7782
22.6821
21.5183
30.729
30.565
30.2771
29.8652
29.3437
28.7319
28.047
27.2999
26.4941
25.6273
24.6939
23.6895
22.616
21.4847
30.6435
30.5244
30.2517
29.8416
29.3168
28.7009
28.0128
27.2647
26.461
25.5995
24.6737
23.6776
22.6123
21.4894
30.5852
30.503
30.2471
29.8423
29.3181
28.7029
28.0186
27.279
26.4887
25.6437
24.7325
23.7414
22.6682
21.5351
30.5698
30.5101
30.2661
29.8661
29.3445
28.7342
28.0607
27.3399
26.5771
25.7654
24.8832
23.8969
22.7883
21.6397
30.5919
30.5428
30.3049
29.9078
29.39
28.7883
28.1323
27.4419
26.7254
25.9759
25.1594
24.1951
22.9611
21.8371
30.6373
30.5908
30.3546
29.9591
29.4457
28.8554
28.2224
27.5731
26.9249
26.2836
25.627
24.8172
23.1369
22.1306
30.6895
30.6416
30.4048
30.01
29.5011
28.9228
28.3146
27.7109
27.1444
26.6586
26.3501
26.4143
0.0
0.0
30.7337
30.6833
30.4451
30.0505
29.5454
28.9773
28.3897
27.8232
27.3211
26.9433
26.8044
27.0716
0.0
0.0
30.759
30.7068
30.4676
30.0731
29.5702
29.0078
28.4317
27.8858
27.4181
27.0942
27.034
27.3983
0.0
0.0
30.5599
30.374
30.1063
29.7378
29.2688
28.7106
28.0757
27.3725
26.6021
25.7589
24.8334
23.8179
22.7136
21.5346
30.5133
30.3444
30.0746
29.6964
29.2157
28.6448
27.9967
27.2802
26.4983
25.6481
24.7238
23.7209
22.6417
21.4989
30.429
30.302
30.0474
29.6718
29.1884
28.6136
27.9623
27.2449
26.4654
25.6212
24.7054
23.7113
22.6402
21.5057
30.3635
30.2719
30.0354
29.6675
29.1874
28.6157
27.9705
27.2641
26.501
25.6767
24.7781
23.789
22.7061
21.5579
30.3354
30.2659
30.0434
29.6839
29.2105
28.6478
28.0176
27.3351
26.6061
25.8231
24.9604
23.9759
22.8454
21.675
30.3429
30.2836
30.0697
29.7175
29.2526
28.7037
28.097
27.453
26.7821
26.0776
25.299
24.3404
23.0439
21.8895
30.3743
30.3174
30.1077
29.7611
29.3055
28.7736
28.1973
27.6053
27.0208
26.4557
25.8833
25.1113
23.2993
22.1836
30.415
30.3563
30.148
29.8056
29.3589
28.8444
28.3003
27.766
27.286
26.9219
26.7902
27.0565
0.0
0.0
30.4512
30.3896
30.1814
29.8418
29.4022
28.9019
28.3843
27.8972
27.4996
27.2767
27.3705
28.0207
0.0
0.0
30.4724
30.4088
30.2003
29.8622
29.4264
28.9341
28.4314
27.9703
27.6166
27.4643
27.6627
28.4475
0.0
0.0
30.4523
30.2651
30.0051
29.6522
29.2035
28.6665
28.0515
27.3653
26.6086
25.775
24.8545
23.8393
22.7305
21.543
30.4098
30.2381
29.9759
29.613
29.1515
28.6007
27.971
27.2703
26.5007
25.6594
24.74
23.7378
22.6555
21.5063
30.327
30.1955
29.9483
29.5882
29.1242
28.5694
27.9366
27.235
26.4681
25.6331
24.7226
23.7295
22.655
21.5139
30.2591
30.1622
29.9333
29.5819
29.1223
28.5717
27.9461
27.2568
26.508
25.6948
24.8029
23.8144
22.726
21.5684
30.2261
30.1508
29.9367
29.5953
29.1442
28.6045
27.9961
27.3334
26.6224
25.8545
25.0019
24.0176
22.8744
21.6892
30.2276
30.1622
29.9578
29.6253
29.185
28.6617
28.0799
27.4601
26.8133
26.1326
25.3727
24.4148
23.0843
21.9058
30.2532
30.1898
29.9906
29.6656
29.2369
28.7334
28.1858
27.6239
27.0731
26.5471
26.0145
25.2564
23.3511
22.1923
30.289
30.2237
30.0266
29.7074
29.2897
28.8063
28.2949
27.7972
27.3626
27.0596
27.0104
27.3755
0.0
0.0
30.3218
30.2533
30.0569
29.7417
29.3326
28.8656
28.3838
27.9387
27.596
27.4506
27.6525
28.4376
0.0
0.0
30.3413
30.2706
30.0743
29.7611
29.3567
28.8989
28.4337
28.0176
27.7239
27.6577
27.9768
28.9125
0.0
0.0
30.4524
30.2652
30.0053
29.6524
29.2037
28.6667
28.0517
27.3656
26.6089
25.7753
24.8549
23.8397
22.7309
21.5434
30.41
30.2383
29.976
29.6131
29.1517
28.6009
27.9712
27.2705
26.501
25.6597
24.7403
23.7381
22.6559
21.5067
30.3272
30.1957
29.9484
29.5883
29.1244
28.5696
27.9368
27.2352
26.4683
25.6334
24.723
23.7298
22.6553
21.5142
30.2593
30.1623
29.9335
29.5821
29.1225
28.5719
27.9463
27.257
26.5083
25.6951
24.8032
23.8148
22.7263
21.5688
30.2263
30.1509
29.9369
29.5954
29.1443
28.6047
27.9963
27.3337
26.6226
25.8548
25.0023
24.018
22.8748
21.6896
30.2278
30.1623
29.9579
29.6255
29.1852
28.6618
28.0801
27.4603
26.8136
26.1329
25.3731
24.4153
23.0848
21.9059
30.2534
30.19
29.9908
29.6658
29.2371
28.7336
28.186
27.6241
27.0734
26.5475
26.015
25.2572
23.3519
22.1919
30.2892
30.2238
30.0268
29.7076
29.2899
28.8065
28.2951
27.7974
27.3629
27.06
27.0108
27.3769
0.0
0.0
30.322
30.2535
30.0571
29.7418
29.3328
28.8658
28.3841
27.939
27.5963
27.4508
27.652
28.4348
0.0
0.0
30.3415
30.2708
30.0745
29.7612
29.3569
28.8991
28.434
28.0179
27.7242
27.6579
27.9763
28.9096
0.0
0.0
30.5603
30.3744
30.1068
29.7382
29.2693
28.7112
28.0764
27.3732
26.603
25.7599
24.8344
23.8191
22.7148
21.5358
30.5137
30.3449
30.075
29.6969
29.2162
28.6454
27.9974
27.2809
26.499
25.649
24.7248
23.7219
22.6428
21.5001
30.4295
30.3025
30.0479
29.6723
29.1889
28.6141
27.9629
27.2456
26.4662
25.6221
24.7064
23.7123
22.6412
21.5068
30.364
30.2724
30.0358
29.668
29.1879
28.6162
27.9711
27.2648
26.5018
25.6776
24.7791
23.7901
22.7073
21.5589
30.3359
30.2664
30.0438
29.6844
29.211
28.6483
28.0182
27.3358
26.6069
25.824
24.9615
23.9772
22.8466
21.676
30.3434
30.2841
30.0702
29.718
29.2531
28.7042
28.0977
27.4537
26.7829
26.0787
25.3003
24.342
23.0454
21.8903
30.3748
30.3179
30.1082
29.7616
29.306
28.7741
28.1979
27.606
27.0216
26.4568
25.8848
25.1137
23.3015
22.1832
30.4156
30.3568
30.1485
29.8061
29.3595
28.845
28.301
27.7668
27.2869
26.9229
26.7917
27.0609
0.0
0.0
30.4518
30.3902
30.1819
29.8423
29.4027
28.9025
28.385
27.898
27.5004
27.2772
27.3698
28.0155
0.0
0.0
30.473
30.4094
30.2008
29.8627
29.427
28.9348
28.4321
27.9712
27.6175
27.465
27.662
28.4417
0.0
0.0
30.7847
30.6005
30.3146
29.9116
29.4001
28.7986
28.1244
27.3881
26.5919
25.7308
24.7959
23.78
22.684
21.5203
30.7298
30.5657
30.2778
29.866
29.3445
28.7328
28.048
27.301
26.4954
25.6287
24.6955
23.6911
22.6177
21.4865
30.6443
30.5251
30.2525
29.8424
29.3176
28.7017
28.0138
27.2658
26.4622
25.6009
24.6752
23.6793
22.614
21.4912
30.586
30.5037
30.2479
29.843
29.3189
28.7038
28.0196
27.2801
26.49
25.6451
24.7341
23.7432
22.67
21.5369
30.5707
30.5109
30.2669
29.8668
29.3454
28.7351
28.0617
27.341
26.5784
25.7669
24.885
23.8989
22.7903
21.6416
30.5928
30.5436
30.3056
29.9086
29.3908
28.7892
28.1333
27.443
26.7268
25.9775
25.1615
24.1976
22.9636
21.839
30.6382
30.5916
30.3554
29.9599
29.4466
28.8563
28.2235
27.5743
26.9263
26.2854
25.6294
24.8207
23.1406
22.132
30.6904
30.6425
30.4056
30.0108
29.502
28.9238
28.3157
27.7121
27.1459
26.6603
26.3526
26.4201
0.0
0.0
30.7347
30.6842
30.4459
30.0514
29.5464
28.9783
28.3908
27.8245
27.3226
26.9446
26.8047
27.0674
0.0
0.0
30.7599
30.7077
30.4685
30.074
29.5711
29.0088
28.4329
27.8872
27.4198
27.0958
27.0342
27.393
0.0
0.0
31.1439
30.9593
30.6377
30.1743
29.5932
28.9246
28.1922
27.4088
26.5769
25.6916
24.7441
23.7275
22.6418
21.4976
31.0771
30.9166
30.593
30.122
29.5338
28.8587
28.1194
27.3288
26.4904
25.6014
24.656
23.6496
22.5834
21.4668
30.9948
30.8827
30.5729
30.1013
29.5082
28.8282
28.0856
27.294
26.4573
25.5728
24.6339
23.6351
22.5769
21.4683
30.9549
30.8805
30.5836
30.1117
29.5141
28.8309
28.0888
27.3024
26.4754
25.6031
24.6754
23.6813
22.6191
21.5027
30.9665
30.9143
30.6237
30.1492
29.547
28.8622
28.1249
27.3506
26.543
25.6941
24.786
23.7952
22.7133
21.5808
31.018
30.9757
30.6854
30.2058
29.5991
28.9151
28.187
27.4329
26.6568
25.8486
24.9787
23.9955
22.8581
21.7232
31.0904
31.0506
30.7567
30.2711
29.6606
28.9795
28.2648
27.5379
26.8066
26.063
25.2695
24.322
23.0174
21.9408
31.1645
31.1234
30.8245
30.3333
29.7203
29.0436
28.3438
27.647
26.9675
26.3075
25.6414
24.8319
23.1685
22.1596
31.2239
31.1804
30.8773
30.3818
29.7675
29.095
28.408
27.736
27.0981
26.4999
25.9097
25.1335
23.3374
22.2196
31.2569
31.2118
30.9063
30.4085
29.7936
29.1236
28.4439
27.7859
27.1704
26.604
26.0491
25.284
23.3922
22.231
31.6687
31.4744
31.0857
30.5237
29.8395
29.0791
28.272
27.4316
26.5585
25.6461
24.6849
23.6675
22.5931
21.4697
31.5891
31.4225
31.0307
30.4629
29.7754
29.0131
28.2038
27.3601
26.4836
25.5696
24.611
23.6024
22.5439
21.4429
31.5245
31.4076
31.0234
30.4488
29.7526
28.9839
28.171
27.3263
26.4514
25.5411
24.5881
23.5862
22.535
21.4414
31.5271
31.445
31.0629
30.4763
29.7666
28.9884
28.1717
27.3288
26.46
25.5584
24.6134
23.6156
22.5631
21.4638
31.5931
31.5289
31.1403
30.5367
29.8102
29.0213
28.202
27.3644
26.5072
25.6203
24.6873
23.6918
22.6287
21.5142
31.7001
31.6421
31.241
30.6176
29.8735
29.0745
28.255
27.4271
26.5883
25.7247
24.8114
23.8178
22.7307
21.6001
31.822
31.7638
31.3481
30.7052
29.945
29.138
28.3209
27.507
26.6933
25.8632
24.9818
23.9939
22.856
21.7217
31.9356
31.8743
31.4451
30.7857
30.0125
29.2
28.3874
27.5892
26.8036
26.013
25.1747
24.2022
22.9699
21.8463
32.0221
31.9577
31.5182
30.847
30.0648
29.2492
28.4411
27.6563
26.8935
26.1336
25.3246
24.3535
23.0573
21.9027
32.0688
32.0024
31.5575
30.8802
30.0934
29.2765
28.4712
27.694
26.9439
26.2001
25.4051
24.432
23.1003
21.9212
32.4071
32.1751
31.6611
30.9447
30.1178
29.2427
28.3503
27.4492
26.5351
25.5972
24.6239
23.6065
22.543
21.4395
32.3236
32.1178
31.5962
30.8751
30.0494
29.1777
28.2879
27.3875
26.473
25.5352
24.5647
23.5546
22.5037
21.4176
32.3149
32.1489
31.6163
30.874
30.0318
29.1505
28.2564
27.3554
26.4426
25.5083
24.5427
23.5385
22.494
21.4142
32.4113
32.2645
31.7068
30.929
30.0575
29.1577
28.255
27.3527
26.4435
25.5153
24.5557
23.5552
22.5107
21.4271
32.5848
32.4397
31.846
31.0241
30.1164
29.1934
28.2801
27.3771
26.4737
25.5543
24.6022
23.6033
22.5528
21.4571
32.7955
32.6429
32.0093
31.141
30.1957
29.2489
28.3253
27.4232
26.5286
25.6217
24.6794
23.6808
22.6179
21.5051
33.0072
32.8439
32.1724
31.2614
30.2817
29.3134
28.3815
27.4826
26.5997
25.7089
24.7799
23.7809
22.6981
21.5678
33.191
33.0173
32.3143
31.3684
30.3606
29.3754
28.4378
27.5435
26.6735
25.8005
24.8865
23.8872
22.7764
21.6298
33.3254
33.1439
32.4186
31.4481
30.4208
29.4239
28.4831
27.5932
26.734
25.8749
24.9718
23.9697
22.8352
21.6661
33.3963
33.2106
32.4738
31.4907
30.4534
29.4507
28.5085
27.6213
26.768
25.9165
25.0187
24.0142
22.8657
21.6813
33.4322
33.0858
32.3425
31.3963
30.3876
29.3845
28.4073
27.4519
26.504
25.5469
24.5655
23.5499
22.4967
21.4104
33.3854
33.042
32.2749
31.3214
30.3177
29.3229
28.3525
27.4011
26.455
25.4993
24.5209
23.511
22.4673
21.3938
33.5261
33.1748
32.3467
31.341
30.3063
29.297
28.3218
27.3706
26.4272
25.4754
24.5016
23.4969
22.4584
21.3899
33.8257
33.4379
32.5203
31.434
30.3451
29.3056
28.3171
27.3628
26.4222
25.4755
24.507
23.5057
22.4678
21.3968
34.2112
33.7734
32.7545
31.5753
30.4211
29.3433
28.3366
27.3774
26.4394
25.4987
24.5355
23.5358
22.4941
21.414
34.6169
34.1281
33.0106
31.7393
30.5187
29.4009
28.3747
27.4102
26.4756
25.5416
24.5839
23.5841
22.5348
21.4406
34.993
34.4592
33.2551
31.902
30.6215
29.467
28.423
27.4542
26.5237
25.5974
24.6455
23.6444
22.5842
21.4735
35.3034
34.7342
33.4615
32.043
30.7141
29.5298
28.4715
27.4999
26.5739
25.6553
24.7092
23.706
22.6329
21.5053
35.5234
34.9299
33.6101
32.1462
30.7837
29.5786
28.5106
27.5374
26.6152
25.7028
24.7607
23.7549
22.6703
21.5269
35.6373
35.0315
33.6877
32.2008
30.8211
29.6054
28.5324
27.5587
26.6387
25.7296
24.7895
23.7819
22.6904
21.5374
34.8487
34.1916
33.0511
31.7952
30.5864
29.4655
28.4221
27.4306
26.4636
25.4975
24.5144
23.5028
22.4587
21.3858
34.9736
34.2143
32.9977
31.721
30.5178
29.4089
28.3757
27.3906
26.4273
25.4637
24.4833
23.476
22.4386
21.3745
35.4867
34.5503
33.1504
31.7626
30.5069
29.3784
28.3415
27.3594
26.4012
25.4432
24.4681
23.4656
22.4322
21.3713
36.2212
35.0729
33.4405
31.8945
30.5508
29.3807
28.3285
27.3446
26.3908
25.4391
24.4698
23.471
22.4384
21.3751
37.0289
35.6731
33.802
32.0834
30.6369
29.4136
28.3386
27.3491
26.3982
25.4525
24.4884
23.4916
22.4563
21.3854
37.808
36.2691
34.1789
32.2957
30.7469
29.468
28.3676
27.3705
26.4216
25.4812
24.5215
23.5248
22.4837
21.4012
38.4919
36.8026
34.5274
32.5017
30.862
29.5321
28.4076
27.4029
26.4554
25.5198
24.5637
23.5658
22.5168
21.4202
39.0368
37.2335
34.8151
32.6774
30.9649
29.5935
28.4491
27.4381
26.4918
25.5602
24.607
23.607
22.5493
21.4385
39.4144
37.5347
35.0191
32.8046
31.0417
29.6414
28.4829
27.4675
26.5223
25.5937
24.6423
23.6401
22.5749
21.4521
39.6075
37.6895
35.1248
32.8714
31.0828
29.6677
28.502
27.4844
26.5398
25.6129
24.6623
23.6587
22.5891
21.4593
36.7706
35.3404
33.5998
32.0114
30.6438
29.4546
28.3852
27.3859
26.4185
25.4551
24.4762
23.4703
22.4335
21.3692
37.4675
35.5299
33.5709
31.9297
30.5668
29.3945
28.3403
27.3517
26.3912
25.4324
24.4571
23.4548