# vtk DataFile Version 2.0
I need something to put here
ASCII

DATASET STRUCTURED_GRID
DIMENSIONS 14 11 21
POINTS 3234 float
1.400000 1.000000 0.000000
1.500000 1.000000 0.000000
1.600000 1.000000 0.000000
1.700000 1.000000 0.000000
1.800000 1.000000 0.000000
1.900000 1.000000 0.000000
2.000000 1.000000 0.000000
2.100000 1.000000 0.000000
2.200000 1.000000 0.000000
2.300000 1.000000 0.000000
2.400000 1.000000 0.000000
2.500000 1.000000 0.000000
2.600000 1.000000 0.000000
2.700000 1.000000 0.000000
1.400000 1.100000 0.000000
1.500000 1.100000 0.000000
1.600000 1.100000 0.000000
1.700000 1.100000 0.000000
1.800000 1.100000 0.000000
1.900000 1.100000 0.000000
2.000000 1.100000 0.000000
2.100000 1.100000 0.000000
2.200000 1.100000 0.000000
2.300000 1.100000 0.000000
2.400000 1.100000 0.000000
2.500000 1.100000 0.000000
2.600000 1.100000 0.000000
2.700000 1.100000 0.000000
1.400000 1.200000 0.000000
1.500000 1.200000 0.000000
1.600000 1.200000 0.000000
1.700000 1.200000 0.000000
1.800000 1.200000 0.000000
1.900000 1.200000 0.000000
2.000000 1.200000 0.000000
2.100000 1.200000 0.000000
2.200000 1.200000 0.000000
2.300000 1.200000 0.000000
2.400000 1.200000 0.000000
2.500000 1.200000 0.000000
2.600000 1.200000 0.000000
2.700000 1.200000 0.000000
1.400000 1.300000 0.000000
1.500000 1.300000 0.000000
1.600000 1.300000 0.000000
1.700000 1.300000 0.000000
1.800000 1.300000 0.000000
1.900000 1.300000 0.000000
2.000000 1.300000 0.000000
2.100000 1.300000 0.000000
2.200000 1.300000 0.000000
2.300000 1.300000 0.000000
2.400000 1.300000 0.000000
2.500000 1.300000 0.000000
2.600000 1.300000 0.000000
2.700000 1.300000 0.000000
1.400000 1.400000 0.000000
1.500000 1.400000 0.000000
1.600000 1.400000 0.000000
1.700000 1.400000 0.000000
1.800000 1.400000 0.000000
1.900000 1.400000 0.000000
2.000000 1.400000 0.000000
2.100000 1.400000 0.000000
2.200000 1.400000 0.000000
2.300000 1.400000 0.000000
2.400000 1.400000 0.000000
2.500000 1.400000 0.000000
2.600000 1.400000 0.000000
2.700000 1.400000 0.000000
1.400000 1.500000 0.000000
1.500000 1.500000 0.000000
1.600000 1.500000 0.000000
1.700000 1.500000 0.000000
1.800000 1.500000 0.000000
1.900000 1.500000 0.000000
2.000000 1.500000 0.000000
2.100000 1.500000 0.000000
2.200000 1.500000 0.000000
2.300000 1.500000 0.000000
2.400000 1.500000 0.000000
2.500000 1.500000 0.000000
2.600000 1.500000 0.000000
2.700000 1.500000 0.000000
1.400000 1.600000 0.000000
1.500000 1.600000 0.000000
1.600000 1.600000 0.000000
1.700000 1.600000 0.000000
1.800000 1.600000 0.000000
1.900000 1.600000 0.000000
2.000000 1.600000 0.000000
2.100000 1.600000 0.000000
2.200000 1.600000 0.000000
2.300000 1.600000 0.000000
2.400000 1.600000 0.000000
2.500000 1.600000 0.000000
2.600000 1.600000 0.000000
2.700000 1.600000 0.000000
1.400000 1.700000 0.000000
1.500000 1.700000 0.000000
1.600000 1.700000 0.000000
1.700000 1.700000 0.000000
1.800000 1.700000 0.000000
1.900000 1.700000 0.000000
2.000000 1.700000 0.000000
2.100000 1.700000 0.000000
2.200000 1.700000 0.000000
2.300000 1.700000 0.000000
2.400000 1.700000 0.000000
2.500000 1.700000 0.000000
2.600000 1.700000 0.000000
2.700000 1.700000 0.000000
1.400000 1.800000 0.000000
1.500000 1.800000 0.000000
1.600000 1.800000 0.000000
1.700000 1.800000 0.000000
1.800000 1.800000 0.000000
1.900000 1.800000 0.000000
2.000000 1.800000 0.000000
2.100000 1.800000 0.000000
2.200000 1.800000 0.000000
2.300000 1.800000 0.000000
2.400000 1.800000 0.000000
2.500000 1.800000 0.000000
2.600000 1.800000 0.000000
2.700000 1.800000 0.000000
1.400000 1.900000 0.000000
1.500000 1.900000 0.000000
1.600000 1.900000 0.000000
1.700000 1.900000 0.000000
1.800000 1.900000 0.000000
1.900000 1.900000 0.000000
2.000000 1.900000 0.000000
2.100000 1.900000 0.000000
2.200000 1.900000 0.000000
2.300000 1.900000 0.000000
2.400000 1.900000 0.000000
2.500000 1.900000 0.000000
2.600000 1.900000 0.000000
2.700000 1.900000 0.000000
1.400000 2.000000 0.000000
1.500000 2.000000 0.000000
1.600000 2.000000 0.000000
1.700000 2.000000 0.000000
1.800000 2.000000 0.000000
1.900000 2.000000 0.000000
2.000000 2.000000 0.000000
2.100000 2.000000 0.000000
2.200000 2.000000 0.000000
2.300000 2.000000 0.000000
2.400000 2.000000 0.000000
2.500000 2.000000 0.000000
2.600000 2.000000 0.000000
2.700000 2.000000 0.000000
1.400000 1.000000 0.100000
1.500000 1.000000 0.100000
1.600000 1.000000 0.100000
1.700000 1.000000 0.100000
1.800000 1.000000 0.100000
1.900000 1.000000 0.100000
2.000000 1.000000 0.100000
2.100000 1.000000 0.100000
2.200000 1.000000 0.100000
2.300000 1.000000 0.100000
2.400000 1.000000 0.100000
2.500000 1.000000 0.100000
2.600000 1.000000 0.100000
2.700000 1.000000 0.100000
1.400000 1.100000 0.100000
1.500000 1.100000 0.100000
1.600000 1.100000 0.100000
1.700000 1.100000 0.100000
1.800000 1.100000 0.100000
1.900000 1.100000 0.100000
2.000000 1.100000 0.100000
2.100000 1.100000 0.100000
2.200000 1.100000 0.100000
2.300000 1.100000 0.100000
2.400000 1.100000 0.100000
2.500000 1.100000 0.100000
2.600000 1.100000 0.100000
2.700000 1.100000 0.100000
1.400000 1.200000 0.100000
1.500000 1.200000 0.100000
1.600000 1.200000 0.100000
1.700000 1.200000 0.100000
1.800000 1.200000 0.100000
1.900000 1.200000 0.100000
2.000000 1.200000 0.100000
2.100000 1.200000 0.100000
2.200000 1.200000 0.100000
2.300000 1.200000 0.100000
2.400000 1.200000 0.100000
2.500000 1.200000 0.100000
2.600000 1.200000 0.100000
2.700000 1.200000 0.100000
1.400000 1.300000 0.100000
1.500000 1.300000 0.100000
1.600000 1.300000 0.100000
1.700000 1.300000 0.100000
1.800000 1.300000 0.100000
1.900000 1.300000 0.100000
2.000000 1.300000 0.100000
2.100000 1.300000 0.100000
2.200000 1.300000 0.100000
2.300000 1.300000 0.100000
2.400000 1.300000 0.100000
2.500000 1.300000 0.100000
2.600000 1.300000 0.100000
2.700000 1.300000 0.100000
1.400000 1.400000 0.100000
1.500000 1.400000 0.100000
1.600000 1.400000 0.100000
1.700000 1.400000 0.100000
1.800000 1.400000 0.100000
1.900000 1.400000 0.100000
2.000000 1.400000 0.100000
2.100000 1.400000 0.100000
2.200000 1.400000 0.100000
2.300000 1.400000 0.100000
2.400000 1.400000 0.100000
2.500000 1.400000 0.100000
2.600000 1.400000 0.100000
2.700000 1.400000 0.100000
1.400000 1.500000 0.100000
1.500000 1.500000 0.100000
1.600000 1.500000 0.100000
1.700000 1.500000 0.100000
1.800000 1.500000 0.100000
1.900000 1.500000 0.100000
2.000000 1.500000 0.100000
2.100000 1.500000 0.100000
2.200000 1.500000 0.100000
2.300000 1.500000 0.100000
2.400000 1.500000 0.100000
2.500000 1.500000 0.100000
2.600000 1.500000 0.100000
2.700000 1.500000 0.100000
1.400000 1.600000 0.100000
1.500000 1.600000 0.100000
1.600000 1.600000 0.100000
1.700000 1.600000 0.100000
1.800000 1.600000 0.100000
1.900000 1.600000 0.100000
2.000000 1.600000 0.100000
2.100000 1.600000 0.100000
2.200000 1.600000 0.100000
2.300000 1.600000 0.100000
2.400000 1.600000 0.100000
2.500000 1.600000 0.100000
2.600000 1.600000 0.100000
2.700000 1.600000 0.100000
1.400000 1.700000 0.100000
1.500000 1.700000 0.100000
1.600000 1.700000 0.100000
1.700000 1.700000 0.100000
1.800000 1.700000 0.100000
1.900000 1.700000 0.100000
2.000000 1.700000 0.100000
2.100000 1.700000 0.100000
2.200000 1.700000 0.100000
2.300000 1.700000 0.100000
2.400000 1.700000 0.100000
2.500000 1.700000 0.100000
2.600000 1.700000 0.100000
2.700000 1.700000 0.100000
1.400000 1.800000 0.100000
1.500000 1.800000 0.100000
1.600000 1.800000 0.100000
1.700000 1.800000 0.100000
1.800000 1.800000 0.100000
1.900000 1.800000 0.100000
2.000000 1.800000 0.100000
2.100000 1.800000 0.100000
2.200000 1.800000 0.100000
2.300000 1.800000 0.100000
2.400000 1.800000 0.100000
2.500000 1.800000 0.100000
2.600000 1.800000 0.100000
2.700000 1.800000 0.100000
1.400000 1.900000 0.100000
1.500000 1.900000 0.100000
1.600000 1.900000 0.100000
1.700000 1.900000 0.100000
1.800000 1.900000 0.100000
1.900000 1.900000 0.100000
2.000000 1.900000 0.100000
2.100000 1.900000 0.100000
2.200000 1.900000 0.100000
2.300000 1.900000 0.100000
2.400000 1.900000 0.100000
2.500000 1.900000 0.100000
2.600000 1.900000 0.100000
2.700000 1.900000 0.100000
1.400000 2.000000 0.100000
1.500000 2.000000 0.100000
1.600000 2.000000 0.100000
1.700000 2.000000 0.100000
1.800000 2.000000 0.100000
1.900000 2.000000 0.100000
2.000000 2.000000 0.100000
2.100000 2.000000 0.100000
2.200000 2.000000 0.100000
2.300000 2.000000 0.100000
2.400000 2.000000 0.100000
2.500000 2.000000 0.100000
2.600000 2.000000 0.100000
2.700000 2.000000 0.100000
1.400000 1.000000 0.200000
1.500000 1.000000 0.200000
1.600000 1.000000 0.200000
1.700000 1.000000 0.200000
1.800000 1.000000 0.200000
1.900000 1.000000 0.200000
2.000000 1.000000 0.200000
2.100000 1.000000 0.200000
2.200000 1.000000 0.200000
2.300000 1.000000 0.200000
2.400000 1.000000 0.200000
2.500000 1.000000 0.200000
2.600000 1.000000 0.200000
2.700000 1.000000 0.200000
1.400000 1.100000 0.200000
1.500000 1.100000 0.200000
1.600000 1.100000 0.200000
1.700000 1.100000 0.200000
1.800000 1.100000 0.200000
1.900000 1.100000 0.200000
2.000000 1.100000 0.200000
2.100000 1.100000 0.200000
2.200000 1.100000 0.200000
2.300000 1.100000 0.200000
2.400000 1.100000 0.200000
2.500000 1.100000 0.200000
2.600000 1.100000 0.200000
2.700000 1.100000 0.200000
1.400000 1.200000 0.200000
1.500000 1.200000 0.200000
1.600000 1.200000 0.200000
1.700000 1.200000 0.200000
1.800000 1.200000 0.200000
1.900000 1.200000 0.200000
2.000000 1.200000 0.200000
2.100000 1.200000 0.200000
2.200000 1.200000 0.200000
2.300000 1.200000 0.200000
2.400000 1.200000 0.200000
2.500000 1.200000 0.200000
2.600000 1.200000 0.200000
2.700000 1.200000 0.200000
1.400000 1.300000 0.200000
1.500000 1.300000 0.200000
1.600000 1.300000 0.200000
1.700000 1.300000 0.200000
1.800000 1.300000 0.200000
1.900000 1.300000 0.200000
2.000000 1.300000 0.200000
2.100000 1.300000 0.200000
2.200000 1.300000 0.200000
2.300000 1.300000 0.200000
2.400000 1.300000 0.200000
2.500000 1.300000 0.200000
2.600000 1.300000 0.200000
2.700000 1.300000 0.200000
1.400000 1.400000 0.200000
[...]
CELL_DATA 2600
SCALARS pressure float 1
LOOKUP_TABLE default
21.1756
19.8299
18.518
17.2711
16.1055
15.0294
14.0429
13.1376
12.2993
11.5123
10.762
10.0365
9.32694
21.1781
19.8442
18.5419
17.3016
16.1396
15.0644
14.0762
13.1674
12.3246
11.5329
10.7781
10.0487
9.33595
21.1817
19.8694
18.5848
17.3567
16.2017
15.1282
14.1372
13.2221
12.3712
11.5709
10.8079
10.0713
9.35267
21.1855
19.9008
18.6389
17.4268
16.2809
15.2099
14.2156
13.2928
12.4317
11.6203
10.8468
10.101
9.37464
21.1888
19.9332
18.6956
17.5009
16.3651
15.2972
14.2997
13.369
12.4971
11.6741
10.8893
10.1335
9.39878
21.1917
19.9623
18.7473
17.569
16.443
15.3783
14.3782
13.4405
12.5589
11.725
10.9298
10.1646
9.42193
21.1942
19.9856
18.7889
17.6242
16.5064
15.4447
14.4427
13.4995
12.6101
11.7675
10.9636
10.1906
9.4414
21.1963
20.0015
18.8175
17.6625
16.5507
15.4911
14.4881
13.5411
12.6463
11.7976
10.9877
10.2092
9.45526
21.1978
20.0099
18.8324
17.6826
16.574
15.5157
14.5121
13.5631
12.6655
11.8135
11.0003
10.2189
9.46243
21.1983
20.0109
18.8339
17.6845
16.5761
15.5178
14.5138
13.5645
12.6664
11.814
11.0004
10.2187
9.46211
21.18
19.8732
18.5983
17.3809
16.2346
15.1674
14.1798
13.2652
12.4121
11.6076
10.8396
10.0977
9.37407
21.1819
19.885
18.6179
17.4059
16.2626
15.196
14.207
13.2895
12.4328
11.6245
10.8528
10.1078
9.38156
21.1845
19.9059
18.6533
17.4512
16.3133
15.248
14.2567
13.3341
12.4708
11.6556
10.8773
10.1265
9.39543
21.1872
19.9318
18.6978
17.5085
16.378
15.3146
14.3204
13.3915
12.52
11.6959
10.9092
10.1509
9.41352
21.1896
19.9584
18.7442
17.5687
16.4462
15.3851
14.3882
13.4529
12.5727
11.7392
10.9435
10.1772
9.43308
21.1918
19.982
18.7858
17.6232
16.5083
15.4495
14.4503
13.5092
12.6213
11.7793
10.9753
10.2015
9.45119
21.194
20.0002
18.8179
17.6655
16.5565
15.4997
14.4988
13.5533
12.6593
11.8106
11
10.2204
9.46516
21.1961
20.0115
18.8376
17.6912
16.5858
15.5299
14.5278
13.5795
12.6816
11.8287
11.0142
10.231
9.4728
21.1983
20.0154
18.843
17.6977
16.5926
15.5363
14.5334
13.5839
12.6847
11.8307
11.0151
10.2311
9.47239
21.2009
20.0115
18.8331
17.6828
16.5739
15.5156
14.5119
13.5629
12.6653
11.8133
11.0002
10.2188
9.46237
21.1879
19.8666
18.5962
17.3909
16.2541
15.1959
14.2168
13.3081
12.4573
11.6515
10.8795
10.1323
9.40276
21.1904
19.8806
18.6181
17.4176
16.2834
15.2252
14.2439
13.3318
12.4769
11.6671
10.8915
10.1413
9.40933
21.1936
19.9055
18.6575
17.4657
16.3361
15.2782
14.2932
13.3749
12.5127
11.6957
10.9136
10.1579
9.42143
21.1962
19.9359
18.7062
17.5253
16.4022
15.345
14.3557
13.4297
12.5585
11.7324
10.942
10.1792
9.43701
21.1979
19.9654
18.7552
17.5865
16.4701
15.4139
14.4206
13.487
12.6065
11.771
10.9719
10.2016
9.45342
21.1992
19.99
18.7973
17.6397
16.5294
15.4744
14.4776
13.5375
12.649
11.8051
10.9984
10.2214
9.46776
21.2006
20.0074
18.8274
17.6781
16.5722
15.5178
14.5185
13.5736
12.6791
11.8291
11.0167
10.2349
9.4773
21.2023
20.0166
18.8426
17.6971
16.5928
15.5381
14.5369
13.5892
12.6914
11.8383
11.023
10.2389
9.47962
21.2049
20.0173
18.8412
17.6935
16.5871
15.5306
14.5282
13.5796
12.6817
11.8287
11.0141
10.231
9.47276
21.2095
20.0095
18.8221
17.665
16.5519
15.4917
14.4882
13.541
12.6461
11.7974
10.9875
10.209
9.45514
21.188
19.7835
18.4983
17.299
16.1609
15.1135
14.1562
13.2718
12.4413
11.6498
10.8863
10.1433
9.41507
21.1935
19.8067
18.5304
17.3353
16.1999
15.1513
14.1897
13.2994
12.463
11.6662
10.8985
10.152
9.42119
21.2013
19.8493
18.5884
17.4
16.2696
15.2193
14.25
13.3494
12.5024
11.6962
10.9206
10.168
9.43242
21.2065
19.901
18.658
17.4775
16.3546
15.3032
14.3251
13.412
12.552
11.734
10.9486
10.1882
9.44665
21.2087
19.9474
18.7254
17.5546
16.4386
15.3865
14.4006
13.4755
12.6027
11.7729
10.9774
10.2089
9.46117
21.2095
19.9824
18.7801
17.6193
16.5088
15.4561
14.4638
13.5291
12.6456
11.8057
11.0016
10.2261
9.473
21.2102
20.0049
18.8167
17.6633
16.556
15.5024
14.5056
13.5641
12.6732
11.8263
11.0161
10.2359
9.47922
21.2116
20.0151
18.8327
17.6816
16.5744
15.5192
14.5193
13.574
12.6794
11.8293
11.0167
10.2349
9.47728
21.2147
20.0141
18.8271
17.6714
16.5602
15.5018
14.5
13.5539
12.6596
11.8107
11
10.2204
9.46509
21.2214
20.0031
18.7998
17.6308
16.5102
15.4467
14.4437
13.4998
12.6101
11.7674
10.9635
10.1904
9.44123
21.1521
19.5457
18.2733
17.1019
15.932
14.8998
13.9898
13.157
12.3693
11.6086
10.8656
10.1352
9.41411
21.1677
19.5911
18.3272
17.1581
15.9932
14.9573
14.0376
13.1938
12.3963
11.6278
10.8789
10.1442
9.42017
21.1935
19.6815
18.4264
17.257
16.1022
15.0606
14.1238
13.2602
12.4451
11.6626
10.9032
10.1607
9.43121
21.2115
19.7982
18.5414
17.3659
16.2314
15.1858
14.2292
13.3422
12.5058
11.7061
10.9335
10.1815
9.44503
21.2179
19.8917
18.6488
17.4737
16.3524
15.3042
14.3313
13.4231
12.5665
11.7498
10.9641
10.2022
9.45871
21.2194
19.954
18.7322
17.5634
16.4489
15.3981
14.4133
13.489
12.6161
11.7855
10.9887
10.2185
9.46907
21.2201
19.9902
18.7856
17.6231
16.5113
15.4577
14.4649
13.5298
12.646
11.806
11.0017
10.2262
9.47301
21.2215
20.0059
18.8083
17.6471
16.5343
15.4775
14.4795
13.5386
12.6496
11.8055
10.9985
10.2215
9.46776
21.2251
20.005
18.8013
17.6334
16.5147
15.4535
14.4526
13.5106
12.622
11.7796
10.9754
10.2015
9.45112
21.2337
19.9903
18.7654
17.5803
16.4498
15.3822
14.3803
13.4415
12.5593
11.7251
10.9297
10.1644
9.42174
20.9612
18.9222
17.8876
16.8408
15.4978
14.5027
13.6984
12.9635
12.2481
11.5361
10.8243
10.1132
9.40372
21.0081
19.0114
17.9793
16.9296
15.6044
14.5985
13.772
13.0157
12.2836
11.5597
10.8397
10.1231
9.40996
21.1097
19.2237
18.1579
17.0843
15.7965
14.7724
13.9052
13.11
12.3477
11.6023
10.8676
10.1411
9.42131
21.191
19.5529
18.3449
17.2087
16.0223
14.9833
14.0672
13.2254
12.4269
11.6553
10.9024
10.1635
9.43538
21.219
19.774
18.5205
17.351
16.2127
15.1683
14.2172
13.3363
12.5046
11.708
10.937
10.1855
9.449
21.226
19.8978
18.6531
17.4767
16.3545
15.3057
14.3323
13.4238
12.5669
11.7501
10.9642
10.2023
9.45874
21.2281
19.9618
18.7356
17.5617
16.4434
15.3898
14.4027
13.4768
12.6036
11.7734
10.9777
10.2091
9.46122
21.23
19.9887
18.7716
17.5976
16.4775
15.4188
14.4236
13.4888
12.6076
11.7716
10.9722
10.2018
9.45344
21.2342
19.9898
18.7657
17.583
16.4554
15.3909
14.3917
13.4549
12.5738
11.7398
10.9437
10.1772
9.43303
21.2442
19.9708
18.7204
17.5167
16.3748
15.303
14.303
13.3707
12.498
11.6744
10.8893
10.1334
9.39859
20.0507
17.2087
17.4143
16.5991
14.6032
13.8142
13.262
12.6996
12.091
11.4439
10.7712
10.0836
9.38811
20.189
17.3507
17.561
16.7429
14.8089
13.9799
13.3762
12.7737
12.1378
11.4731
10.7893
10.0946
9.39469
20.6369
17.8332
17.8874
17.0576
15.1902
14.2882
13.5856
12.9081
12.2225
11.5259
10.8219
10.1145
9.40663
21.0652
18.9839
18.0857
17.0808
15.6973
14.6809
13.8434
13.0726
12.3266
11.5913
10.8625
10.1393
9.42134
21.1935
19.5548
18.3458
17.2088
16.0228
14.9839
14.0679
13.2259
12.4272
11.6556
10.9026
10.1635
9.43542
21.224
19.8076
18.548
17.3703
16.2346
15.1882
14.2309
13.3434
12.5066
11.7066
10.9338
10.1816
9.4451
21.2321
19.9201
18.6717
17.487
16.3611
15.3076
14.3281
13.4139
12.5532
11.7348
10.9491
10.1884
9.44674
21.236
19.965
18.7268
17.5396
16.4117
15.3513
14.3597
13.4322
12.56
11.7333
10.9425
10.1794
9.43707
21.2409
19.9702
18.7243
17.5263
16.3896
15.322
14.325
13.3943
12.5216
11.6967
10.9096
10.151
9.41349
21.2515
19.9463
18.6692
17.4464
16.2932
15.2174
14.2199
13.2952
12.4329
11.6208
10.847
10.1009
9.37446
0.0
0.0
0.0
0.0
12.2608
12.7134
12.7137
12.4038
11.925
11.3491
10.7172
10.0533
9.37162
0.0
0.0
0.0
0.0
12.7122
12.9899
12.8801
12.5031
11.984
11.3842
10.7379
10.0654
9.37857
0.0
0.0
0.0
0.0
13.5756
13.5174
13.1903
12.6847
12.0911
11.4476
10.7754
10.0874
9.39117
20.6171
17.8221
17.8718
17.0342
15.1851
14.2874
13.5857
12.9084
12.2227
11.526
10.822
10.1146
9.40666
21.1072
19.2222
18.1546
17.0792
15.7954
14.773
13.906
13.1107
12.3483
11.6027
10.8679
10.1412
9.42138
21.2067
19.6916
18.4332
17.2612
16.1057
15.0634
14.1259
13.2618
12.4461
11.6633
10.9036
10.161
9.43132
21.2304
19.8712
18.6041
17.411
16.2772
15.2246
14.2537
13.3518
12.5039
11.6971
10.9211
10.1682
9.43253
21.2387
19.9388
18.6813
17.4821
16.3472
15.2856
14.298
13.3779
12.5146
11.6968
10.9142
10.1581
9.42152
21.2448
19.9493
18.6835
17.4716
16.3268
15.2567
14.2621
13.3374
12.4727
11.6566
10.8778
10.1267
9.39542
21.2554
19.9206
18.6192
17.3791
16.2158
15.1368
14.1423
13.225
12.3728
11.5716
10.8081
10.0713
9.35249
0.0
0.0
0.0
0.0
10.8912
11.9686
12.2867
12.1639
11.7897
11.2724
10.6736
10.0288
9.35818
0.0
0.0
0.0
0.0
11.4818
12.3198
12.4933
12.2836
11.8587
11.3121
10.6965
10.0418
9.36542
0.0
0.0
0.0
0.0
12.7203
12.9921
12.8805
12.5032
11.984
11.3842
10.7379
10.0654
9.37856
20.1674
17.3375
17.544
16.7235
14.8061
13.9798
13.3765
12.774
12.1381
11.4733
10.7894
10.0947
9.39472
21.0031
19.0086
17.9753
16.9248
15.6036
14.5992
13.773
13.0166
12.2843
11.5602
10.84
10.1233
9.41004
21.1807
19.6014
18.3342
17.1626
15.997
14.9604
14.0401
13.1956
12.3975
11.6286
10.8794
10.1445
9.42028
21.2245
19.8303
18.5475
17.3473
16.2083
15.1572
14.1937
13.3021
12.4648
11.6673
10.8991
10.1524
9.42132
21.2387
19.9166
18.644
17.4356
16.2956
15.2333
14.2492
13.3352
12.479
11.6684
10.8922
10.1416
9.40943
21.2465
19.9319
18.6508
17.4282
16.2773
15.2055
14.213
13.2932
12.4349
11.6257
10.8534
10.1081
9.38156
21.2567
19.8991
18.579
17.3259
16.1551
15.0739
14.0819
13.1706
12.3264
11.5337
10.7784
10.0487
9.33577
0.0
0.0
0.0
0.0
10.2666
11.5825
12.0585
12.0327
11.715
11.23
10.6496
10.0152
9.35074
0.0
0.0
0.0
0.0
10.92
11.9711
12.286
12.1633
11.7894
11.2723
10.6736
10.0287
9.35814
0.0
0.0
0.0
0.0
12.2851
12.717
12.7135
12.4034
11.9248
11.3491
10.7172
10.0532
9.37159
20.0285
17.2015
17.408
16.5958
14.6038
13.8141
13.2619
12.6997
12.0912
11.4441
10.7714
10.0837
9.38811
20.9552
18.9197
17.8846
16.8378
15.4973
14.5032
13.6992
12.9643
12.2487
11.5366
10.8246
10.1134
9.40376
21.1654
19.5564
18.2806
17.1067
15.9359
14.9029
13.9923
13.1589
12.3706
11.6095
10.8662
10.1354
9.41421
21.2202
19.8081
18.5161
17.3115
16.1697
15.1196
14.1605
13.2747
12.4432
11.6509
10.887
10.1436
9.41518
21.2383
19.9042
18.6233
17.4098
16.267
15.2045
14.2224
13.3118
12.4596
11.6528
10.8803
10.1326
9.40285
21.2471
19.9221
18.6326
17.4043
16.2502
15.1775
14.1862
13.2691
12.4144
11.6089
10.8402
10.098
9.37406
21.2572
19.8871
18.5568
17.2966
16.1217
15.0394
14.0489
13.141
12.3011
11.5132
10.7623
10.0365
9.32675
0.0
0.0
0.0
0.0
10.2704
11.5843
12.0594
12.0332
11.7153
11.2301
10.6497
10.0153
9.35079
0.0
0.0
0.0
0.0
10.9218
11.9721
12.2866
12.1637
11.7896
11.2724
10.6737
10.0288
9.35819
0.0
0.0
0.0
0.0
12.2854
12.7174
12.7139
12.4036
11.925
11.3492
10.7173
10.0533
9.37163
20.0297
17.2029
17.409
16.5966
14.6042
13.8144
13.2621
12.6998
12.0913
11.4442
10.7714
10.0837
9.38815
20.9559
18.9205
17.8852
16.8382
15.4976
14.5034
13.6993
12.9645
12.2488
11.5367
10.8247
10.1134
9.4038
21.166
19.5569
18.281
17.107
15.9361
14.9031
13.9924
13.159
12.3707
11.6096
10.8662
10.1355
9.41424
21.2207
19.8086
18.5165
17.3118
16.17
15.1198
14.1606
13.2748
12.4433
11.651
10.8871
10.1437
9.41522
21.2387
19.9047
18.6236
17.4101
16.2672
15.2047
14.2226
13.3119
12.4597
11.6529
10.8803
10.1327
9.40289
21.2476
19.9225
18.633
17.4047
16.2504
15.1777
14.1864
13.2692
12.4145
11.6089
10.8403
10.098
9.37409
21.2577
19.8876
18.5572
17.2969
16.122
15.0396
14.0491
13.1411
12.3012
11.5132
10.7623
10.0365
9.32678
0.0
0.0
0.0
0.0
10.9008
11.9732
12.289
12.1651
11.7904
11.2728
10.6739
10.0289
9.35831
0.0
0.0
0.0
0.0
11.4867
12.3225
12.4948
12.2844
11.8592
11.3125
10.6967
10.0419
9.36555
0.0
0.0
0.0
0.0
12.7214
12.9933
12.8814
12.5038
11.9844
11.3845
10.7382
10.0656
9.37868
20.171
17.3412
17.5462
16.7251
14.807
13.9805
13.3771
12.7745
12.1384
11.4735
10.7896
10.0948
9.39483
21.0053
19.0108
17.9768
16.9259
15.6044
14.5998
13.7735
13.017
12.2846
11.5604
10.8402
10.1234
9.41014
21.1824
19.6029
18.3354
17.1636
15.9977
14.961
14.0405
13.196
12.3978
11.6288
10.8796
10.1446
9.42039
21.2259
19.8316
18.5486
17.3481
16.209
15.1577
14.1942
13.3025
12.465
11.6675
10.8993
10.1525
9.42143
21.2401
19.9178
18.645
17.4365
16.2963
15.2339
14.2497
13.3355
12.4793
11.6686
10.8924
10.1418
9.40954
21.2479
19.9331
18.6518
17.4291
16.2781
15.2061
14.2135
13.2936
12.4352
11.6259
10.8536
10.1082
9.38167
21.2583
19.9005
18.5802
17.3269
16.1558
15.0745
14.0824
13.171
12.3267
11.5339
10.7786
10.0488
9.33588
0.0
0.0
0.0
0.0
12.272
12.7186
12.7163
12.4053
11.9259
11.3498
10.7176
10.0536
9.37183
0.0
0.0
0.0
0.0
12.7183
12.9931
12.8819
12.5042
11.9847
11.3847
10.7383
10.0656
9.37877
0.0
0.0
0.0
0.0
13.5772
13.5188
13.1914
12.6855
12.0916
11.4481
10.7758
10.0876
9.39135
20.6232
17.8276
17.8744
17.0351
15.1861
14.2882
13.5864
12.909
12.2232
11.5264
10.8223
10.1148
9.40684
21.1108
19.2254
18.1567
17.0805
15.7963
14.7737
13.9067
13.1113
12.3487
11.6031
10.8682
10.1414
9.42155
21.2094
19.6939
18.4349
17.2625
16.1067
15.0642
14.1266
13.2623
12.4466
11.6636
10.9039
10.1612
9.43148
21.2326
19.8732
18.6058
17.4123
16.2783
15.2254
14.2544
13.3523
12.5044
11.6975
10.9214
10.1685
9.4327
21.2407
19.9407
18.6829
17.4834
16.3483
15.2864
14.2987
13.3785
12.5151
11.6972
10.9145
10.1584
9.42169
21.247
19.9512
18.6852
17.473
16.3279
15.2576
14.2628
13.338
12.4732
11.657
10.8781
10.1269
9.3956
21.2578
19.9227
18.621
17.3807
16.217
15.1378
14.1431
13.2256
12.3733
11.572
10.8084
10.0715
9.35268
20.0603
17.2153
17.4121
16.592
14.6045
13.8165
13.2639
12.701
12.092
11.4446
10.7717
10.084
9.38837
20.2016
17.3601
17.5581
16.7306
14.8076
13.9809
13.3775
12.7748
12.1387
11.4737
10.7897
10.0949
9.39495
20.6508
17.8453
17.8857
17.0416
15.1873
14.2883
13.5863
12.9089
12.2232
11.5264
10.8223
10.1149
9.40687
21.0725
18.9897
18.0871
17.0784
15.6968
14.6814
13.8441
13.0733
12.3272
11.5917
10.8629
10.1396
9.42157
21.1981
19.5585
18.3478
17.2095
16.0235
14.9847
14.0686
13.2266
12.4278
11.656
10.9029
10.1638
9.43564
21.2274
19.8105
18.5502
17.3718
16.2358
15.1891
14.2318
13.3441
12.5071
11.707
10.9342
10.1819
9.44532
21.235
19.9227
18.6738
17.4887
16.3625
15.3087
14.329
13.4146
12.5538
11.7352
10.9494
10.1887
9.44696
21.2386
19.9674
18.7289
17.5413
16.4131
15.3524
14.3607
13.433
12.5606
11.7337
10.9429
10.1797
9.4373
21.2436
19.9726
18.7265
17.5281
16.3911
15.3232
14.326
13.3951
12.5222
11.6972
10.9099
10.1513
9.41373
21.2545
19.949
18.6716
17.4484
16.2948
15.2187
14.221
13.296
12.4336
11.6214
10.8474
10.1012
9.3747
20.9685
18.9269
17.8883
16.839
15.4981
14.5039
13.6997
12.9647
12.249
11.5368
10.8249
10.1136
9.40401
21.0163
19.0169
17.9798
16.9266
15.6038
14.5991
13.773
13.0167
12.2844
11.5603
10.8402
10.1235
9.41025
21.1179
19.2297
18.1588
17.081
15.7955
14.7727
13.9059
13.1108
12.3484
11.6029
10.8681
10.1414
9.42159
21.197
19.5575
18.3468
17.2085
16.0225
14.9838
14.068
13.2262
12.4275
11.6559
10.9029
10.1638
9.43564
21.2236
19.7777
18.5228
17.3522
16.2136
15.1692
14.2181
13.337
12.5053
11.7085
10.9374
10.1859
9.44926
21.2297
19.9009
18.6555
17.4785
16.3559
15.3068
14.3333
13.4246
12.5675
11.7506
10.9647
10.2026
9.459
21.2313
19.9647
18.738
17.5636
16.445
15.391
14.4037
13.4777
12.6042
11.7739
10.9782
10.2094
9.46148
21.2331
19.9915
18.774
17.5996
16.4792
15.4201
14.4247
13.4897
12.6083
11.7722
10.9727
10.2021
9.45371
21.2373
19.9926
18.7682
17.5851
16.4572
15.3923
14.3929
13.4558
12.5746
11.7404
10.9442
10.1776
9.4333
21.2476
19.9739
18.7231
17.519
16.3767
15.3045
14.3042
13.3717
12.4987
11.675
10.8898
10.1337
9.39887
21.1579
19.5499
18.2754
17.1027
15.9329
14.9009
13.991
13.1581
12.3702
11.6094
10.8662
10.1356
9.41442
21.1737
19.5954
18.3293
17.1586
15.9938
14.9582
14.0386
13.1948
12.3971
11.6285
10.8795
10.1446
9.42047
21.1994
19.686
18.4286
17.2575
16.1028
15.0614
14.1246
13.261
12.4458
11.6632
10.9037
10.1611
9.4315
21.2166
19.8022
18.5439
17.3671
16.2324
15.1867
14.2301
13.343
12.5065
11.7066
10.934
10.1818
9.44531
21.2222
19.8953
18.6514
17.4755
16.3538
15.3054
14.3323
13.424
12.5672
11.7504
10.9645
10.2026
9.45899
21.2232
19.9572
18.7349
17.5655
16.4506
15.3995
14.4144
13.4899
12.6169
11.7861
10.9892
10.2189
9.46935
21.2235
19.9933
18.7882
17.6252
16.5131
15.4592
14.4661
13.5307
12.6468
11.8066
11.0022
10.2265
9.47329
21.2248
20.0089
18.8109
17.6494
16.5362
15.479
14.4808
13.5396
12.6504
11.8061
10.999
10.2219
9.46805
21.2284
20.0081
18.804
17.6357
16.5166
15.4551
14.4539
13.5116
12.6228
11.7802
10.9759
10.2019
9.45141
21.2374
19.9936
18.7683
17.5828
16.4518
15.3839
14.3817
13.4426
12.5601
11.7258
10.9302
10.1648
9.42204
21.193
19.7875
18.5011
17.3008
16.1624
15.1148
14.1574
13.2729
12.4422
11.6505
10.8869
10.1437
9.41537
21.1986
19.8108
18.5332
17.3371
16.2013
15.1525
14.1908
13.3004
12.4638
11.6669
10.899
10.1524
9.42149
21.2063
19.8533
18.5912
17.4019
16.271
15.2205
14.2511
13.3503
12.5032
11.6968
10.9211
10.1683
9.43271
21.2111
19.9049
18.6609
17.4795
16.3561
15.3044
14.3262
13.4129
12.5528
11.7346
10.9491
10.1886
9.44694
21.2128
19.951
18.7283
17.5568
16.4403
15.3879
14.4017
13.4764
12.6035
11.7735
10.9779
10.2093
9.46145
21.2133
19.9858
18.783
17.6216
16.5106
15.4576
14.465
13.5301
12.6464
11.8064
11.0021
10.2265
9.47328
21.2137
20.0081
18.8195
17.6657
16.558
15.504
14.5069
13.5652
12.674
11.8269
11.0166
10.2363
9.47951
21.215
20.0183
18.8354
17.684
16.5764
15.5208
14.5206
13.5751
12.6802
11.8299
11.0173
10.2353
9.47758
21.2182
20.0174
18.83
17.6739
16.5622
15.5035
14.5013
13.555
12.6604
11.8113
11.0005
10.2208
9.4654
21.2251
20.0065
18.8028
17.6334
16.5123
15.4485
14.4451
13.5009
12.611
11.7681
10.964
10.1909
9.44154
21.1927
19.8706
18.5994
17.3933
16.256
15.1974
14.218
13.3092
12.4582
11.6522
10.88
10.1327
9.40304
21.1952
19.8847
18.6213
17.42
16.2852
15.2266
14.2451
13.3328
12.4777
11.6678
10.8921
10.1417
9.4096
21.1983
19.9095
18.6607
17.468
16.3379
15.2796
14.2944
13.3758
12.5135
11.6963
10.9141
10.1582
9.4217
21.2007
19.9397
18.7093
17.5278
16.4041
15.3465
14.3569
13.4307
12.5593
11.733
10.9425
10.1795
9.43727
21.202
19.9691
18.7583
17.5889
16.472
15.4155
14.4218
13.4879
12.6073
11.7716
10.9724
10.202
9.45368
21.2031
19.9935
18.8003
17.6422
16.5314
15.476
14.4789
13.5385
12.6498
11.8058
10.9988
10.2218
9.46803
21.2042
20.0107
18.8303
17.6806
16.5742
15.5195
14.5198
13.5746
12.6799
11.8298
11.0172
10.2353
9.47758
21.2058
20.0199
18.8455
17.6995
16.5948
15.5397
14.5383
13.5902
12.6923
11.8389
11.0235
10.2393
9.47991
21.2085
20.0205
18.8441
17.696
16.5892
15.5324
14.5296
13.5807
12.6825
11.8294
11.0147
10.2314
9.47306
21.2132
20.0129
18.8251
17.6676
16.5541
15.4934
14.4896
13.5421
12.647
11.7981
10.988
10.2094
9.45545
21.1849
19.8775
18.6018
17.3836
16.2367
15.169
14.1811
13.2662
12.4129
11.6082
10.84
10.0981
9.3743
21.1868
19.8893
18.6214
17.4086
16.2646
15.1975
14.2083
13.2905
12.4336
11.6251
10.8533
10.1082
9.38178
21.1894
19.9101
18.6567
17.4538
16.3153
15.2496
14.2579
13.3351
12.4716
11.6562
10.8778
10.1269
9.39565
21.1918
19.9359
18.7012
17.5111
16.38
15.3161
14.3216
13.3925
12.5207
11.6965
10.9096
10.1512
9.41374
21.1939
19.9622
18.7474
17.5713
16.4482
15.3867
14.3894
13.4538
12.5734
11.7398
10.9439
10.1775
9.4333
21.1958
19.9855
18.7889
17.6258
16.5103
15.4511
14.4516
13.5102
12.6221
11.7799
10.9757
10.2019
9.45142
21.1977
20.0036
18.8209
17.668
16.5586
15.5013
14.5001
13.5543
12.6601
11.8112
11.0005
10.2208
9.46541
21.1997
20.0148
18.8405
17.6937
16.5878
15.5316
14.5291
13.5805
12.6825
11.8294
11.0147
10.2314
9.47307
21.2019
20.0187
18.846
17.7002
16.5947
15.5381
14.5348
13.585
12.6856
11.8313
11.0156
10.2315
9.47268
21.2045
20.0149
18.8361
17.6853
16.5761
15.5173
14.5133
13.564
12.6662
11.814
11.0007
10.2192
9.46266
21.1811
19.8347
18.5218
17.274
16.1076
15.031
14.0441
13.1385
12.3
11.5128
10.7624
10.0368
9.3271
21.1836
19.8489
18.5457
17.3044
16.1417
15.0659
14.0774
13.1683
12.3253
11.5334
10.7785
10.049
9.3361
21.1871
19.8741
18.5885
17.3595
16.2037
15.1296
14.1383
13.223
12.3719
11.5714
10.8083
10.0716
9.35281
21.1905
19.9052
18.6424
17.4295
16.2829
15.2114
14.2167
13.2937
12.4324
11.6208
10.8472
10.1012
9.37479
21.1935
19.9372
18.6989
17.5035
16.3671
15.2987
14.3008
13.3698
12.4978
11.6745
10.8897
10.1337
9.39893
21.1959
19.9661
18.7505
17.5716
16.445
15.3799
14.3794
13.4414
12.5596
11.7255
10.9302
10.1648
9.4221
21.1981
19.9891
18.7919
17.6267
16.5085
15.4463
14.444
13.5004
12.6108
11.768
10.964
10.1909
9.4416
21.2
20.0049