# vtk DataFile Version 2.0
I need something to put here
ASCII

DATASET STRUCTURED_GRID
DIMENSIONS 14 11 21
POINTS 3234 float
2.700000 0.000000 0.000000
2.800000 0.000000 0.000000
2.900000 0.000000 0.000000
3.000000 0.000000 0.000000
3.100000 0.000000 0.000000
3.200000 0.000000 0.000000
3.300000 0.000000 0.000000
3.400000 0.000000 0.000000
3.500000 0.000000 0.000000
3.600000 0.000000 0.000000
3.700000 0.000000 0.000000
3.800000 0.000000 0.000000
3.900000 0.000000 0.000000
4.000000 0.000000 0.000000
2.700000 0.100000 0.000000
2.800000 0.100000 0.000000
2.900000 0.100000 0.000000
3.000000 0.100000 0.000000
3.100000 0.100000 0.000000
3.200000 0.100000 0.000000
3.300000 0.100000 0.000000
3.400000 0.100000 0.000000
3.500000 0.100000 0.000000
3.600000 0.100000 0.000000
3.700000 0.100000 0.000000
3.800000 0.100000 0.000000
3.900000 0.100000 0.000000
4.000000 0.100000 0.000000
2.700000 0.200000 0.000000
2.800000 0.200000 0.000000
2.900000 0.200000 0.000000
3.000000 0.200000 0.000000
3.100000 0.200000 0.000000
3.200000 0.200000 0.000000
3.300000 0.200000 0.000000
3.400000 0.200000 0.000000
3.500000 0.200000 0.000000
3.600000 0.200000 0.000000
3.700000 0.200000 0.000000
3.800000 0.200000 0.000000
3.900000 0.200000 0.000000
4.000000 0.200000 0.000000
2.700000 0.300000 0.000000
2.800000 0.300000 0.000000
2.900000 0.300000 0.000000
3.000000 0.300000 0.000000
3.100000 0.300000 0.000000
3.200000 0.300000 0.000000
3.300000 0.300000 0.000000
3.400000 0.300000 0.000000
3.500000 0.300000 0.000000
3.600000 0.300000 0.000000
3.700000 0.300000 0.000000
3.800000 0.300000 0.000000
3.900000 0.300000 0.000000
4.000000 0.300000 0.000000
2.700000 0.400000 0.000000
2.800000 0.400000 0.000000
2.900000 0.400000 0.000000
3.000000 0.400000 0.000000
3.100000 0.400000 0.000000
3.200000 0.400000 0.000000
3.300000 0.400000 0.000000
3.400000 0.400000 0.000000
3.500000 0.400000 0.000000
3.600000 0.400000 0.000000
3.700000 0.400000 0.000000
3.800000 0.400000 0.000000
3.900000 0.400000 0.000000
4.000000 0.400000 0.000000
2.700000 0.500000 0.000000
2.800000 0.500000 0.000000
2.900000 0.500000 0.000000
3.000000 0.500000 0.000000
3.100000 0.500000 0.000000
3.200000 0.500000 0.000000
3.300000 0.500000 0.000000
3.400000 0.500000 0.000000
3.500000 0.500000 0.000000
3.600000 0.500000 0.000000
3.700000 0.500000 0.000000
3.800000 0.500000 0.000000
3.900000 0.500000 0.000000
4.000000 0.500000 0.000000
2.700000 0.600000 0.000000
2.800000 0.600000 0.000000
2.900000 0.600000 0.000000
3.000000 0.600000 0.000000
3.100000 0.600000 0.000000
3.200000 0.600000 0.000000
3.300000 0.600000 0.000000
3.400000 0.600000 0.000000
3.500000 0.600000 0.000000
3.600000 0.600000 0.000000
3.700000 0.600000 0.000000
3.800000 0.600000 0.000000
3.900000 0.600000 0.000000
4.000000 0.600000 0.000000
2.700000 0.700000 0.000000
2.800000 0.700000 0.000000
2.900000 0.700000 0.000000
3.000000 0.700000 0.000000
3.100000 0.700000 0.000000
3.200000 0.700000 0.000000
3.300000 0.700000 0.000000
3.400000 0.700000 0.000000
3.500000 0.700000 0.000000
3.600000 0.700000 0.000000
3.700000 0.700000 0.000000
3.800000 0.700000 0.000000
3.900000 0.700000 0.000000
4.000000 0.700000 0.000000
2.700000 0.800000 0.000000
2.800000 0.800000 0.000000
2.900000 0.800000 0.000000
3.000000 0.800000 0.000000
3.100000 0.800000 0.000000
3.200000 0.800000 0.000000
3.300000 0.800000 0.000000
3.400000 0.800000 0.000000
3.500000 0.800000 0.000000
3.600000 0.800000 0.000000
3.700000 0.800000 0.000000
3.800000 0.800000 0.000000
3.900000 0.800000 0.000000
4.000000 0.800000 0.000000
2.700000 0.900000 0.000000
2.800000 0.900000 0.000000
2.900000 0.900000 0.000000
3.000000 0.900000 0.000000
3.100000 0.900000 0.000000
3.200000 0.900000 0.000000
3.300000 0.900000 0.000000
3.400000 0.900000 0.000000
3.500000 0.900000 0.000000
3.600000 0.900000 0.000000
3.700000 0.900000 0.000000
3.800000 0.900000 0.000000
3.900000 0.900000 0.000000
4.000000 0.900000 0.000000
2.700000 1.000000 0.000000
2.800000 1.000000 0.000000
2.900000 1.000000 0.000000
3.000000 1.000000 0.000000
3.100000 1.000000 0.000000
3.200000 1.000000 0.000000
3.300000 1.000000 0.000000
3.400000 1.000000 0.000000
3.500000 1.000000 0.000000
3.600000 1.000000 0.000000
3.700000 1.000000 0.000000
3.800000 1.000000 0.000000
3.900000 1.000000 0.000000
4.000000 1.000000 0.000000
2.700000 0.000000 0.100000
2.800000 0.000000 0.100000
2.900000 0.000000 0.100000
3.000000 0.000000 0.100000
3.100000 0.000000 0.100000
3.200000 0.000000 0.100000
3.300000 0.000000 0.100000
3.400000 0.000000 0.100000
3.500000 0.000000 0.100000
3.600000 0.000000 0.100000
3.700000 0.000000 0.100000
3.800000 0.000000 0.100000
3.900000 0.000000 0.100000
4.000000 0.000000 0.100000
2.700000 0.100000 0.100000
2.800000 0.100000 0.100000
2.900000 0.100000 0.100000
3.000000 0.100000 0.100000
3.100000 0.100000 0.100000
3.200000 0.100000 0.100000
3.300000 0.100000 0.100000
3.400000 0.100000 0.100000
3.500000 0.100000 0.100000
3.600000 0.100000 0.100000
3.700000 0.100000 0.100000
3.800000 0.100000 0.100000
3.900000 0.100000 0.100000
4.000000 0.100000 0.100000
2.700000 0.200000 0.100000
2.800000 0.200000 0.100000
2.900000 0.200000 0.100000
3.000000 0.200000 0.100000
3.100000 0.200000 0.100000
3.200000 0.200000 0.100000
3.300000 0.200000 0.100000
3.400000 0.200000 0.100000
3.500000 0.200000 0.100000
3.600000 0.200000 0.100000
3.700000 0.200000 0.100000
3.800000 0.200000 0.100000
3.900000 0.200000 0.100000
4.000000 0.200000 0.100000
2.700000 0.300000 0.100000
2.800000 0.300000 0.100000
2.900000 0.300000 0.100000
3.000000 0.300000 0.100000
3.100000 0.300000 0.100000
3.200000 0.300000 0.100000
3.300000 0.300000 0.100000
3.400000 0.300000 0.100000
3.500000 0.300000 0.100000
3.600000 0.300000 0.100000
3.700000 0.300000 0.100000
3.800000 0.300000 0.100000
3.900000 0.300000 0.100000
4.000000 0.300000 0.100000
2.700000 0.400000 0.100000
2.800000 0.400000 0.100000
2.900000 0.400000 0.100000
3.000000 0.400000 0.100000
3.100000 0.400000 0.100000
3.200000 0.400000 0.100000
3.300000 0.400000 0.100000
3.400000 0.400000 0.100000
3.500000 0.400000 0.100000
3.600000 0.400000 0.100000
3.700000 0.400000 0.100000
3.800000 0.400000 0.100000
3.900000 0.400000 0.100000
4.000000 0.400000 0.100000
2.700000 0.500000 0.100000
2.800000 0.500000 0.100000
2.900000 0.500000 0.100000
3.000000 0.500000 0.100000
3.100000 0.500000 0.100000
3.200000 0.500000 0.100000
3.300000 0.500000 0.100000
3.400000 0.500000 0.100000
3.500000 0.500000 0.100000
3.600000 0.500000 0.100000
3.700000 0.500000 0.100000
3.800000 0.500000 0.100000
3.900000 0.500000 0.100000
4.000000 0.500000 0.100000
2.700000 0.600000 0.100000
2.800000 0.600000 0.100000
2.900000 0.600000 0.100000
3.000000 0.600000 0.100000
3.100000 0.600000 0.100000
3.200000 0.600000 0.100000
3.300000 0.600000 0.100000
3.400000 0.600000 0.100000
3.500000 0.600000 0.100000
3.600000 0.600000 0.100000
3.700000 0.600000 0.100000
3.800000 0.600000 0.100000
3.900000 0.600000 0.100000
4.000000 0.600000 0.100000
2.700000 0.700000 0.100000
2.800000 0.700000 0.100000
2.900000 0.700000 0.100000
3.000000 0.700000 0.100000
3.100000 0.700000 0.100000
3.200000 0.700000 0.100000
3.300000 0.700000 0.100000
3.400000 0.700000 0.100000
3.500000 0.700000 0.100000
3.600000 0.700000 0.100000
3.700000 0.700000 0.100000
3.800000 0.700000 0.100000
3.900000 0.700000 0.100000
4.000000 0.700000 0.100000
2.700000 0.800000 0.100000
2.800000 0.800000 0.100000
2.900000 0.800000 0.100000
3.000000 0.800000 0.100000
3.100000 0.800000 0.100000
3.200000 0.800000 0.100000
3.300000 0.800000 0.100000
3.400000 0.800000 0.100000
3.500000 0.800000 0.100000
3.600000 0.800000 0.100000
3.700000 0.800000 0.100000
3.800000 0.800000 0.100000
3.900000 0.800000 0.100000
4.000000 0.800000 0.100000
2.700000 0.900000 0.100000
2.800000 0.900000 0.100000
2.900000 0.900000 0.100000
3.000000 0.900000 0.100000
3.100000 0.900000 0.100000
3.200000 0.900000 0.100000
3.300000 0.900000 0.100000
3.400000 0.900000 0.100000
3.500000 0.900000 0.100000
3.600000 0.900000 0.100000
3.700000 0.900000 0.100000
3.800000 0.900000 0.100000
3.900000 0.900000 0.100000
4.000000 0.900000 0.100000
2.700000 1.000000 0.100000
2.800000 1.000000 0.100000
2.900000 1.000000 0.100000
3.000000 1.000000 0.100000
3.100000 1.000000 0.100000
3.200000 1.000000 0.100000
3.300000 1.000000 0.100000
3.400000 1.000000 0.100000
3.500000 1.000000 0.100000
3.600000 1.000000 0.100000
3.700000 1.000000 0.100000
3.800000 1.000000 0.100000
3.900000 1.000000 0.100000
4.000000 1.000000 0.100000
2.700000 0.000000 0.200000
2.800000 0.000000 0.200000
2.900000 0.000000 0.200000
3.000000 0.000000 0.200000
3.100000 0.000000 0.200000
3.200000 0.000000 0.200000
3.300000 0.000000 0.200000
3.400000 0.000000 0.200000
3.500000 0.000000 0.200000
3.600000 0.000000 0.200000
3.700000 0.000000 0.200000
3.800000 0.000000 0.200000
3.900000 0.000000 0.200000
4.000000 0.000000 0.200000
2.700000 0.100000 0.200000
2.800000 0.100000 0.200000
2.900000 0.100000 0.200000
3.000000 0.100000 0.200000
3.100000 0.100000 0.200000
3.200000 0.100000 0.200000
3.300000 0.100000 0.200000
3.400000 0.100000 0.200000
3.500000 0.100000 0.200000
3.600000 0.100000 0.200000
3.700000 0.100000 0.200000
3.800000 0.100000 0.200000
3.900000 0.100000 0.200000
4.000000 0.100000 0.200000
2.700000 0.200000 0.200000
2.800000 0.200000 0.200000
2.900000 0.200000 0.200000
3.000000 0.200000 0.200000
3.100000 0.200000 0.200000
3.200000 0.200000 0.200000
3.300000 0.200000 0.200000
3.400000 0.200000 0.200000
3.500000 0.200000 0.200000
3.600000 0.200000 0.200000
3.700000 0.200000 0.200000
3.800000 0.200000 0.200000
3.900000 0.200000 0.200000
4.000000 0.200000 0.200000
2.700000 0.300000 0.200000
2.800000 0.300000 0.200000
2.900000 0.300000 0.200000
3.000000 0.300000 0.200000
3.100000 0.300000 0.200000
3.200000 0.300000 0.200000
3.300000 0.300000 0.200000
3.400000 0.300000 0.200000
3.500000 0.300000 0.200000
3.600000 0.300000 0.200000
3.700000 0.300000 0.200000
3.800000 0.300000 0.200000
3.900000 0.300000 0.200000
4.000000 0.300000 0.200000
2.700000 0.400000 0.200000
[...]
CELL_DATA 2600
SCALARS pressure float 1
LOOKUP_TABLE default
8.67122
7.95994
7.25603
6.55731
5.86219
5.16948
4.47836
3.78826
3.0988
2.40974
1.72092
1.03231
0.343937
8.67157
7.96029
7.25636
6.5576
5.86243
5.16968
4.47852
3.78839
3.0989
2.40981
1.72097
1.03233
0.343908
8.66796
7.9578
7.25468
6.55651
5.86175
5.16927
4.47829
3.78827
3.09885
2.40979
1.72095
1.03229
0.343847
8.66085
7.95279
7.25125
6.55422
5.86026
5.16833
4.47772
3.78794
3.09866
2.40969
1.72089
1.03224
0.343793
8.65084
7.94573
7.24639
6.55095
5.85811
5.16696
4.47687
3.78743
3.09837
2.40952
1.7208
1.03217
0.343757
8.63894
7.93735
7.24061
6.54705
5.85554
5.16531
4.47584
3.78681
3.09801
2.40932
1.72069
1.03212
0.343741
8.62657
7.92865
7.23461
6.54301
5.85288
5.1636
4.47477
3.78617
3.09764
2.40912
1.72059
1.03208
0.343741
8.61533
7.92075
7.22918
6.53935
5.85047
5.16205
4.4738
3.78558
3.0973
2.40893
1.7205
1.03205
0.34375
8.60677
7.91475
7.22506
6.53658
5.84864
5.16087
4.47306
3.78513
3.09704
2.40879
1.72043
1.03203
0.343761
8.60214
7.9115
7.22282
6.53508
5.84765
5.16023
4.47266
3.78489
3.0969
2.40871
1.72039
1.03202
0.343768
8.6715
7.96024
7.25632
6.55757
5.86241
5.16966
4.47851
3.78838
3.0989
2.40981
1.72097
1.03233
0.343906
8.67725
7.96466
7.25965
6.56005
5.86422
5.17097
4.47944
3.78904
3.09935
2.41013
1.7212
1.03249
0.343953
8.67785
7.96534
7.26033
6.56068
5.86477
5.17143
4.47982
3.78934
3.09959
2.41031
1.72133
1.03256
0.343941
8.67414
7.96288
7.25878
6.55975
5.86425
5.17118
4.47973
3.78934
3.09964
2.41037
1.72138
1.03258
0.343929
8.66705
7.95798
7.25547
6.55759
5.8629
5.17036
4.47926
3.7891
3.09953
2.41034
1.72138
1.03259
0.343931
8.65777
7.95148
7.25103
6.55464
5.86099
5.16917
4.47855
3.78869
3.09932
2.41024
1.72134
1.03258
0.343951
8.64771
7.94441
7.24618
6.55139
5.85886
5.16782
4.47772
3.78821
3.09905
2.4101
1.72129
1.03258
0.343982
8.63839
7.93785
7.24167
6.54835
5.85687
5.16655
4.47694
3.78774
3.09879
2.40997
1.72124
1.03258
0.344017
8.63123
7.93282
7.23821
6.54602
5.85534
5.16557
4.47632
3.78738
3.09858
2.40986
1.72119
1.03257
0.344047
8.62733
7.93007
7.23632
6.54475
5.8545
5.16503
4.47599
3.78717
3.09847
2.4098
1.72117
1.03257
0.344064
8.66783
7.95769
7.25459
6.55645
5.8617
5.16923
4.47826
3.78825
3.09883
2.40977
1.72094
1.03228
0.343841
8.6778
7.9653
7.2603
6.56065
5.86475
5.17141
4.4798
3.78933
3.09958
2.4103
1.72132
1.03255
0.343938
8.68203
7.96874
7.26304
6.5628
5.8664
5.17266
4.48074
3.79002
3.10009
2.41067
1.72159
1.03271
0.343956
8.68133
7.96859
7.26322
6.56315
5.86682
5.17308
4.48113
3.79036
3.10037
2.4109
1.72175
1.03281
0.343973
8.67677
7.96563
7.26138
6.56208
5.86625
5.17284
4.48107
3.7904
3.10047
2.411
1.72185
1.03288
0.344008
8.66963
7.96078
7.25818
6.56004
5.86501
5.17212
4.48069
3.79024
3.10042
2.41102
1.72189
1.03293
0.344062
8.66136
7.95508
7.25437
6.55755
5.86344
5.17117
4.48015
3.78995
3.10029
2.41099
1.72191
1.03298
0.344129
8.65346
7.94962
7.25068
6.55512
5.86189
5.17022
4.47958
3.78964
3.10014
2.41093
1.72191
1.03301
0.344195
8.6473
7.94535
7.24778
6.55321
5.86066
5.16945
4.47913
3.78938
3.10001
2.41088
1.7219
1.03304
0.344248
8.64392
7.943
7.24619
6.55215
5.85997
5.16902
4.47887
3.78923
3.09993
2.41084
1.72189
1.03305
0.344277
8.66069
7.95266
7.25113
6.55412
5.86018
5.16826
4.47767
3.78789
3.09863
2.40966
1.72086
1.03222
0.343783
8.67409
7.96283
7.25872
6.5597
5.86421
5.17114
4.4797
3.78932
3.09962
2.41035
1.72137
1.03257
0.343923
8.68134
7.96859
7.26321
6.56313
5.8668
5.17307
4.48111
3.79035
3.10036
2.41089
1.72174
1.0328
0.34397
8.68315
7.97042
7.2649
6.56462
5.86806
5.1741
4.48194
3.791
3.10087
2.41127
1.72202
1.03297
0.344017
8.68063
7.9691
7.26436
6.56454
5.86824
5.1744
4.48228
3.79133
3.10116
2.41152
1.72221
1.03311
0.344085
8.67513
7.96561
7.26225
6.56335
5.86764
5.17417
4.48225
3.79141
3.1013
2.41167
1.72235
1.03322
0.344176
8.66816
7.96102
7.25933
6.56157
5.86661
5.17362
4.48201
3.79134
3.10133
2.41174
1.72244
1.03332
0.344279
8.66123
7.95641
7.25634
6.55969
5.86548
5.17298
4.48168
3.7912
3.1013
2.41177
1.7225
1.0334
0.344379
8.65573
7.95272
7.25393
6.55816
5.86454
5.17244
4.48139
3.79107
3.10125
2.41178
1.72254
1.03345
0.344457
8.65269
7.95067
7.25258
6.5573
5.86401
5.17212
4.48121
3.79098
3.10122
2.41178
1.72256
1.03348
0.3445
8.65071
7.9456
7.24626
6.55083
5.85801
5.16687
4.4768
3.78737
3.09832
2.40948
1.72076
1.03215
0.343742
8.66705
7.95794
7.25542
6.55754
5.86284
5.17031
4.47922
3.78906
3.0995
2.41031
1.72136
1.03257
0.343923
8.67683
7.96565
7.26138
6.56206
5.86623
5.17281
4.48104
3.79038
3.10045
2.41099
1.72183
1.03287
0.344002
8.68068
7.96913
7.26437
6.56454
5.86823
5.17439
4.48227
3.79132
3.10116
2.41151
1.72221
1.0331
0.344082
8.67975
7.96916
7.26493
6.56533
5.86908
5.1752
4.48298
3.79192
3.10165
2.4119
1.7225
1.0333
0.344187
8.67544
7.96677
7.26375
6.5649
5.86907
5.17541
4.4833
3.79226
3.10196
2.41217
1.72272
1.03347
0.344317
8.66935
7.96305
7.2616
6.56375
5.86855
5.17526
4.48334
3.7924
3.10215
2.41236
1.7229
1.03363
0.344459
8.66304
7.95909
7.2592
6.56238
5.86783
5.17494
4.48325
3.79244
3.10225
2.41249
1.72303
1.03376
0.344592
8.65793
7.95584
7.25721
6.5612
5.86718
5.17461
4.48313
3.79243
3.1023
2.41256
1.72311
1.03385
0.344696
8.65508
7.954
7.25607
6.56053
5.8668
5.17442
4.48305
3.79241
3.10231
2.4126
1.72315
1.0339
0.344753
8.6389
7.93726
7.2405
6.54695
5.85544
5.16522
4.47576
3.78674
3.09795
2.40927
1.72065
1.03209
0.343722
8.65785
7.95149
7.25101
6.5546
5.86094
5.16912
4.4785
3.78865
3.09927
2.4102
1.72131
1.03256
0.343939
8.66977
7.96085
7.25821
6.56004
5.86499
5.1721
4.48067
3.79021
3.1004
2.411
1.72187
1.03292
0.344054
8.67528
7.96569
7.26229
6.56337
5.86764
5.17416
4.48224
3.7914
3.10129
2.41165
1.72234
1.03321
0.344171
8.67554
7.96683
7.26379
6.56492
5.86908
5.17542
4.48329
3.79225
3.10196
2.41217
1.72272
1.03347
0.344314
8.67206
7.9653
7.2634
6.56515
5.86961
5.17605
4.48392
3.79282
3.10244
2.41257
1.72303
1.03371
0.344484
8.66652
7.96224
7.26189
6.56457
5.86955
5.17626
4.48425
3.79318
3.10279
2.41287
1.72329
1.03392
0.344665
8.66056
7.95878
7.26
6.56365
5.86921
5.17624
4.4844
3.7934
3.10302
2.41309
1.72348
1.03409
0.344832
8.65565
7.95586
7.25836
6.56279
5.86883
5.17613
4.48444
3.79351
3.10316
2.41323
1.72362
1.03422
0.344961
8.65289
7.95419
7.2574
6.56228
5.86858
5.17605
4.48444
3.79356
3.10322
2.4133
1.72368
1.03429
0.345031
8.62664
7.92862
7.23455
6.54293
5.85279
5.16351
4.47469
3.78609
3.09757
2.40906
1.72053
1.03204
0.343719
8.6479
7.94449
7.2462
6.55137
5.85883
5.16777
4.47767
3.78816
3.099
2.41006
1.72125
1.03255
0.343968
8.66162
7.95523
7.25444
6.55758
5.86344
5.17116
4.48013
3.78992
3.10027
2.41096
1.72189
1.03296
0.344118
8.66842
7.96118
7.25942
6.56162
5.86663
5.17362
4.482
3.79133
3.10131
2.41173
1.72243
1.03331
0.344271
8.66956
7.96318
7.26168
6.5638
5.86857
5.17527
4.48335
3.7924
3.10214
2.41236
1.72289
1.03362
0.344453
8.66664
7.96232
7.26194
6.5646
5.86957
5.17627
4.48426
3.79318
3.10279
2.41287
1.72328
1.03391
0.344662
8.66141
7.95977
7.26097
6.5645
5.86992
5.17681
4.48484
3.79374
3.10327
2.41327
1.72361
1.03418
0.344878
8.65562
7.95668
7.2595
6.56398
5.86991
5.17706
4.4852
3.79411
3.10362
2.41358
1.72387
1.0344
0.345077
8.65079
7.95402
7.25816
6.56341
5.86977
5.17715
4.4854
3.79434
3.10385
2.41379
1.72405
1.03456
0.345229
8.64805
7.95248
7.25735
6.56304
5.86966
5.17717
4.48548
3.79445
3.10396
2.41389
1.72414
1.03464
0.345311
8.61552
7.92081
7.22917
6.5393
5.8504
5.16197
4.47372
3.7855
3.09723
2.40887
1.72044
1.032
0.343725
8.63871
7.93802
7.24175
6.54838
5.85686
5.16652
4.47689
3.7877
3.09874
2.40993
1.7212
1.03255
0.344
8.65385
7.94985
7.25081
6.55519
5.86191
5.17022
4.47957
3.78962
3.10011
2.4109
1.72188
1.03299
0.344181
8.66162
7.95665
7.25649
6.55978
5.86552
5.173
4.48168
3.7912
3.10128
2.41176
1.72249
1.03338
0.344368
8.66338
7.9593
7.25934
6.56247
5.86788
5.17496
4.48327
3.79244
3.10224
2.41248
1.72302
1.03375
0.344584
8.6608
7.95893
7.2601
6.56372
5.86925
5.17627
4.48441
3.7934
3.10302
2.41309
1.72348
1.03409
0.344826
8.65575
7.95677
7.25956
6.56402
5.86994
5.17708
4.48521
3.79412
3.10362
2.41358
1.72387
1.03439
0.345074
8.65002
7.95396
7.25843
6.56382
5.87021
5.17756
4.48574
3.79463
3.10407
2.41396
1.72418
1.03465
0.345299
8.6452
7.95148
7.25732
6.56348
5.87027
5.17781
4.48607
3.79496
3.10437
2.41422
1.7244
1.03484
0.34547
8.64246
7.95003
7.25664
6.56323
5.87027
5.17792
4.48622
3.79512
3.10452
2.41435
1.72451
1.03494
0.345563
8.60709
7.91489
7.2251
6.53657
5.8486
5.16081
4.473
3.78506
3.09697
2.40873
1.72037
1.03198
0.343734
8.63167
7.93307
7.23834
6.54608
5.85535
5.16555
4.47629
3.78734
3.09854
2.40982
1.72115
1.03254
0.344028
8.64781
7.94566
7.24797
6.55332
5.86071
5.16947
4.47912
3.78937
3.09999
2.41085
1.72188
1.03302
0.344232
8.65624
7.95305
7.25414
6.55829
5.86462
5.17248
4.4814
3.79107
3.10124
2.41177
1.72252
1.03344
0.344444
8.65839
7.95614
7.2574
6.56133
5.86726
5.17466
4.48316
3.79244
3.1023
2.41256
1.7231
1.03384
0.344685
8.65602
7.95611
7.25852
6.5629
5.8689
5.17618
4.48447
3.79352
3.10316
2.41323
1.72361
1.03421
0.344952
8.65105
7.95419
7.25827
6.56348
5.86983
5.17719
4.48542
3.79435
3.10385
2.41379
1.72405
1.03455
0.345223
8.64533
7.95157
7.25738
6.56351
5.8703
5.17783
4.48608
3.79496
3.10438
2.41422
1.7244
1.03484
0.345467
8.6405
7.94922
7.25644
6.56334
5.87051
5.17821
4.4865
3.79537
3.10473
2.41452
1.72465
1.03504
0.345653
8.63775
7.94784
7.25585
6.56319
5.87058
5.17838
4.4867
3.79556
3.10491
2.41467
1.72477
1.03515
0.345753
8.60257
7.91173
7.22293
6.53511
5.84764
5.16019
4.47261
3.78483
3.09683
2.40865
1.72034
1.03197
0.343739
8.62789
7.93041
7.23652
6.54485
5.85455
5.16504
4.47597
3.78715
3.09843
2.40977
1.72113
1.03254
0.344043
8.64454
7.9434
7.24644
6.5523
5.86006
5.16906
4.47888
3.78923
3.09991
2.41082
1.72187
1.03303
0.34426
8.65331
7.95108
7.25285
6.55748
5.86412
5.17219
4.48124
3.79099
3.10122
2.41177
1.72254
1.03347
0.344485
8.65565
7.9544
7.25633
6.5607
5.86691
5.17449
4.48309
3.79243
3.10232
2.41259
1.72315
1.03389
0.344739
8.65338
7.95453
7.25763
6.56244
5.86869
5.17612
4.48448
3.79358
3.10323
2.4133
1.72368
1.03428
0.345019
8.64844
7.95275
7.25753
6.56316
5.86974
5.17723
4.48552
3.79447
3.10397
2.41389
1.72414
1.03463
0.345302
8.64272
7.95023
7.25677
6.56332
5.87033
5.17796
4.48625
3.79513
3.10453
2.41435
1.72451
1.03493
0.345557
8.63788
7.94795
7.25593
6.56324
5.87062
5.1784
4.48672
3.79557
3.10492
2.41467
1.72477
1.03515
0.34575
8.63513
7.9466
7.25538
6.56313
5.87073
5.17861
4.48695
3.79579
3.10511
2.41484
1.72491
1.03526
0.345855
8.60263
7.91177
7.22296
6.53513
5.84765
5.1602
4.47262
3.78483
3.09684
2.40865
1.72034
1.03197
0.343738
8.62794
7.93046
7.23655
6.54488
5.85456
5.16505
4.47598
3.78715
3.09843
2.40977
1.72113
1.03254
0.344042
8.6446
7.94344
7.24647
6.55233
5.86008
5.16907
4.47889
3.78923
3.09992
2.41082
1.72187
1.03303
0.344259
8.65337
7.95113
7.25289
6.5575
5.86414
5.1722
4.48125
3.791
3.10122
2.41177
1.72254
1.03347
0.344483
8.65571
7.95444
7.25636
6.56072
5.86692
5.1745
4.48309
3.79244
3.10232
2.4126
1.72315
1.03388
0.344737
8.65344
7.95458
7.25766
6.56246
5.8687
5.17613
4.48449
3.79358
3.10323
2.4133
1.72368
1.03428
0.345017
8.6485
7.95279
7.25757
6.56319
5.86976
5.17724
4.48552
3.79448
3.10397
2.41389
1.72414
1.03463
0.3453
8.64278
7.95027
7.2568
6.56334
5.87034
5.17797
4.48625
3.79514
3.10453
2.41435
1.72451
1.03493
0.345554
8.63794
7.94799
7.25596
6.56326
5.87063
5.17841
4.48673
3.79558
3.10492
2.41467
1.72477
1.03515
0.345747
8.63519
7.94665
7.25542
6.56315
5.87074
5.17862
4.48696
3.7958
3.10511
2.41484
1.72491
1.03526
0.345852
8.60726
7.91503
7.2252
6.53664
5.84865
5.16085
4.47302
3.78508
3.09698
2.40873
1.72037
1.03198
0.343731
8.63184
7.9332
7.23844
6.54616
5.85541
5.16559
4.47632
3.78735
3.09855
2.40983
1.72115
1.03254
0.344025
8.64798
7.94579
7.24807
6.55339
5.86076
5.1695
4.47915
3.78938
3.09999
2.41085
1.72188
1.03301
0.344228
8.65641
7.95317
7.25423
6.55836
5.86467
5.17251
4.48143
3.79108
3.10125
2.41177
1.72252
1.03344
0.344438
8.65856
7.95626
7.2575
6.5614
5.86731
5.1747
4.48318
3.79245
3.1023
2.41256
1.7231
1.03383
0.344679
8.65619
7.95623
7.25861
6.56297
5.86895
5.17621
4.48449
3.79354
3.10317
2.41323
1.72361
1.03421
0.344945
8.65122
7.95432
7.25836
6.56355
5.86988
5.17722
4.48544
3.79437
3.10386
2.41379
1.72405
1.03455
0.345215
8.64551
7.9517
7.25748
6.56358
5.87035
5.17786
4.4861
3.79497
3.10438
2.41422
1.7244
1.03483
0.345459
8.64068
7.94935
7.25654
6.56341
5.87056
5.17824
4.48652
3.79538
3.10474
2.41452
1.72464
1.03504
0.345645
8.63794
7.94798
7.25595
6.56326
5.87063
5.17841
4.48672
3.79557
3.10491
2.41467
1.72477
1.03515
0.345745
8.6158
7.92102
7.22933
6.53942
5.85048
5.16203
4.47376
3.78552
3.09724
2.40887
1.72044
1.032
0.34372
8.63898
7.93823
7.24191
6.54849
5.85695
5.16658
4.47693
3.78772
3.09876
2.40993
1.7212
1.03254
0.343995
8.65411
7.95005
7.25096
6.5553
5.862
5.17027
4.47961
3.78964
3.10013
2.41091
1.72188
1.03299
0.344174
8.66189
7.95685
7.25664
6.55989
5.86561
5.17306
4.48172
3.79122
3.1013
2.41176
1.72249
1.03338
0.344359
8.66364
7.9595
7.25949
6.56258
5.86796
5.17502
4.4833
3.79247
3.10226
2.41248
1.72301
1.03374
0.344574
8.66107
7.95914
7.26026
6.56383
5.86933
5.17632
4.48444
3.79342
3.10303
2.41309
1.72347
1.03408
0.344815
8.65602
7.95697
7.25971
6.56413
5.87001
5.17713
4.48524
3.79413
3.10363
2.41358
1.72386
1.03439
0.345062
8.6503
7.95416
7.25858
6.56392
5.87028
5.17761
4.48577
3.79464
3.10408
2.41396
1.72417
1.03464
0.345286
8.64548
7.95169
7.25747
6.56358
5.87035
5.17786
4.4861
3.79497
3.10438
2.41422
1.72439
1.03483
0.345457
8.64276
7.95025
7.2568
6.56334
5.87034
5.17797
4.48625
3.79513
3.10453
2.41435
1.7245
1.03493
0.345549
8.627
7.9289
7.23476
6.54308
5.8529
5.16358
4.47474
3.78612
3.09758
2.40906
1.72053
1.03203
0.343711
8.64826
7.94477
7.24641
6.55152
5.85894
5.16785
4.47772
3.78819
3.09902
2.41007
1.72125
1.03255
0.34396
8.66197
7.9555
7.25465
6.55773
5.86355
5.17123
4.48018
3.78995
3.10028
2.41097
1.72188
1.03295
0.344108
8.66877
7.96145
7.25962
6.56177
5.86673
5.1737
4.48205
3.79136
3.10133
2.41173
1.72242
1.0333
0.34426
8.66991
7.96345
7.26188
6.56395
5.86868
5.17534
4.48339
3.79243
3.10215
2.41236
1.72289
1.03361
0.34444
8.66699
7.96259
7.26214
6.56474
5.86967
5.17634
4.4843
3.79321
3.1028
2.41287
1.72328
1.0339
0.344647
8.66177
7.96004
7.26117
6.56465
5.87002
5.17688
4.48488
3.79376
3.10328
2.41327
1.7236
1.03416
0.344862
8.65599
7.95696
7.2597
6.56412
5.87001
5.17713
4.48524
3.79413
3.10363
2.41358
1.72386
1.03438
0.34506
8.65117
7.9543
7.25835
6.56355
5.86987
5.17722
4.48543
3.79436
3.10385
2.41378
1.72404
1.03454
0.345211
8.64844
7.95276
7.25755
6.56318
5.86975
5.17723
4.48551
3.79447
3.10396
2.41388
1.72413
1.03462
0.345293
8.63933
7.93759
7.24075
6.54713
5.85557
5.1653
4.47582
3.78677
3.09796
2.40927
1.72064
1.03208
0.343713
8.65827
7.95182
7.25126
6.55478
5.86106
5.1692
4.47855
3.78868
3.09929
2.4102
1.72131
1.03255
0.34393
8.67019
7.96117
7.25845
6.56022
5.86512
5.17219
4.48072
3.79024
3.10041
2.411
1.72187
1.03291
0.344043
8.67569
7.96601
7.26253
6.56355
5.86776
5.17424
4.4823
3.79143
3.1013
2.41166
1.72233
1.0332
0.344157
8.67595
7.96714
7.26402
6.56509
5.8692
5.1755
4.48334
3.79228
3.10197
2.41217
1.72271
1.03346
0.344299
8.67248
7.96561
7.26363
6.56532
5.86973
5.17613
4.48397
3.79285
3.10245
2.41257
1.72302
1.03369
0.344467
8.66695
7.96256
7.26212
6.56473
5.86966
5.17634
4.4843
3.7932
3.10279
2.41287
1.72327
1.0339
0.344645
8.661
7.9591
7.26023
6.56381
5.86932
5.17631
4.48444
3.79341
3.10302
2.41308
1.72347
1.03407
0.344811
8.65609
7.95618
7.25859
6.56295
5.86893
5.1762
4.48448
3.79352
3.10316
2.41322
1.7236
1.0342
0.344939
8.65334
7.95452
7.25763
6.56244
5.86869
5.17612
4.48448
3.79357
3.10322
2.41329
1.72367
1.03427
0.345009
8.65119
7.94597
7.24653
6.55103
5.85815
5.16696
4.47685
3.7874
3.09833
2.40948
1.72075
1.03213
0.343732
8.66752
7.9583
7.25569
6.55773
5.86298
5.1704
4.47928
3.78909
3.09951
2.41031
1.72135
1.03256
0.343912
8.67729
7.966
7.26164
6.56225
5.86636
5.1729
4.4811
3.79041
3.10046
2.41099
1.72183
1.03286
0.34399
8.68114
7.96948
7.26463
6.56473
5.86836
5.17448
4.48233
3.79135
3.10117
2.41151
1.7222
1.03309
0.344067
8.68021
7.96951
7.26519
6.56552
5.8692
5.17528
4.48303
3.79194
3.10165
2.41189
1.72249
1.03328
0.344169
8.67591
7.96712
7.26401
6.56508
5.86919
5.17549
4.48334
3.79227
3.10196
2.41217
1.72271
1.03346
0.344297
8.66982
7.96339
7.26185
6.56393
5.86866
5.17533
4.48338
3.79242
3.10215
2.41235
1.72288
1.03361
0.344437
8.66352
7.95943
7.25945
6.56255
5.86794
5.175
4.48329
3.79245
3.10224
2.41247
1.72301
1.03373
0.344569
8.65842
7.95619
7.25746
6.56137
5.86729
5.17468
4.48316
3.79244
3.10229
2.41255
1.72309
1.03382
0.344672
8.65557
7.95436
7.25632
6.5607
5.8669
5.17448
4.48308
3.79242
3.1023
2.41258
1.72313
1.03387
0.344728
8.66119
7.95303
7.25141
6.55432
5.86031
5.16835
4.47772
3.78792
3.09863
2.40965
1.72085
1.0322
0.343771
8.67458
7.96321
7.259
6.5599
5.86435
5.17123
4.47975
3.78934
3.09962
2.41035
1.72135
1.03256
0.343911
8.68182
7.96896
7.26348
6.56333
5.86693
5.17316
4.48116
3.79037
3.10037
2.41089
1.72173
1.03279
0.343957
8.68363
7.97078
7.26517
6.56481
5.86819
5.17419
4.48199
3.79102
3.10087
2.41126
1.722
1.03295
0.344
8.68111
7.96945
7.26462
6.56472
5.86836
5.17448
4.48232
3.79134
3.10116
2.41151
1.72219
1.03309
0.344066
8.67561
7.96596
7.2625
6.56353
5.86775
5.17423
4.48229
3.79142
3.10129
2.41165
1.72233
1.0332
0.344154
8.66864
7.96137
7.25958
6.56173
5.86671
5.17368
4.48203
3.79135
3.10131
2.41172
1.72241
1.03329
0.344255
8.66172
7.95676
7.25658
6.55985
5.86558
5.17303
4.4817
3.7912
3.10128
2.41174
1.72247
1.03337
0.344353
8.65623
7.95307
7.25417
6.55832
5.86464
5.17249
4.4814
3.79106
3.10123
2.41175
1.72251
1.03342
0.34443
8.65319
7.95102
7.25283
6.55746
5.86411
5.17217
4.48123
3.79097
3.10119
2.41175
1.72252
1.03345
0.344472
8.66833
7.95806
7.25487
6.55664
5.86182
5.16931
4.4783
3.78826
3.09883
2.40976
1.72092
1.03226
0.343829
8.6783
7.96567
7.26057
6.56084
5.86488
5.1715
4.47985
3.78935
3.09958
2.41029
1.72131
1.03253
0.343926
8.68251
7.9691
7.2633
6.56298
5.86652
5.17274
4.48078
3.79004
3.10009
2.41066
1.72157
1.03269
0.343942
8.6818
7.96895
7.26347
6.56332
5.86693
5.17315
4.48116
3.79037
3.10037
2.41088
1.72173
1.03279
0.343955
8.67723
7.96597
7.26162
6.56224
5.86635
5.17289
4.48109
3.7904
3.10045
2.41098
1.72182
1.03285
0.343987
8.67009
7.96111
7.25842
6.56019
5.8651
5.17217
4.48071
3.79023
3.1004
2.41099
1.72186
1.0329
0.344038
8.66182
7.95541
7.25459
6.5577
5.86352
5.17121
4.48015
3.78993
3.10026
2.41095
1.72187
1.03294
0.344102
8.65393
7.94995
7.2509
6.55526
5.86196
5.17024
4.47958
3.78962
3.1001
2.41089
1.72186
1.03297
0.344167
8.64778
7.94568
7.248
6.55334
5.86073
5.16947
4.47912
3.78935
3.09997
2.41083
1.72185
1.033
0.344218
8.6444
7.94333
7.2464
6.55228
5.86004
5.16904
4.47886
3.7892
3.09989
2.41079
1.72185
1.03301
0.344247
8.67198
7.9606
7.25657
6.55775
5.86253
5.16973
4.47854
3.78839
3.09888
2.40978
1.72094
1.03231
0.343893
8.67772
7.96501
7.25991
6.56023
5.86434
5.17104
4.47947
3.78904
3.09935
2.41011
1.72118
1.03247
0.343939
8.6783
7.96568
7.26057
6.56084
5.86488
5.17149
4.47985
3.78934
3.09958
2.41029
1.7213
1.03253
0.343924
8.67457
7.9632
7.259
6.55989
5.86434
5.17123
4.47974
3.78933
3.09962
2.41034
1.72135
1.03255
0.343909
8.66747
7.95828
7.25568
6.55772
5.86297
5.17039
4.47926
3.78908
3.0995
2.41029
1.72134
1.03255
0.343908
8.65818
7.95176
7.25122
6.55475
5.86104
5.16918
4.47853
3.78866
3.09927
2.41018
1.72129
1.03254
0.343924
8.64812
7.94469
7.24636
6.55149
5.85891
5.16782
4.47769
3.78816
3.09899
2.41004
1.72123
1.03253
0.343952
8.6388
7.93813
7.24184
6.54844
5.85691
5.16654
4.4769
3.78769
3.09872
2.4099
1.72117
1.03252
0.343985
8.63165
7.93309
7.23837
6.54611
5.85536
5.16555
4.47628
3.78732
3.09851
2.40979
1.72113
1.03252
0.344013
8.62776
7.93034
7.23648
6.54483
5.85452
5.16501
4.47594
3.78711
3.09839
2.40973
1.7211
1.03252
0.344029
8.67169
7.96028
7.25627
6.55748
5.86229
5.16954
4.47838
3.78826
3.09879
2.40971
1.7209
1.03229
0.343924
8.67201
7.96061
7.25658
6.55776
5.86253
5.16973
4.47854
3.78839
3.09888
2.40978
1.72094
1.0323
0.343892
8.66837
7.95809
7.25488
6.55664
5.86183
5.16931
4.4783
3.78826
3.09882