# vtk DataFile Version 2.0
I need something to put here
ASCII

DATASET STRUCTURED_GRID
DIMENSIONS 15 11 21
POINTS 3465 float
0.000000 1.000000 0.000000
0.100000 1.000000 0.000000
0.200000 1.000000 0.000000
0.300000 1.000000 0.000000
0.400000 1.000000 0.000000
0.500000 1.000000 0.000000
0.600000 1.000000 0.000000
0.700000 1.000000 0.000000
0.800000 1.000000 0.000000
0.900000 1.000000 0.000000
1.000000 1.000000 0.000000
1.100000 1.000000 0.000000
1.200000 1.000000 0.000000
1.300000 1.000000 0.000000
1.400000 1.000000 0.000000
0.000000 1.100000 0.000000
0.100000 1.100000 0.000000
0.200000 1.100000 0.000000
0.300000 1.100000 0.000000
0.400000 1.100000 0.000000
0.500000 1.100000 0.000000
0.600000 1.100000 0.000000
0.700000 1.100000 0.000000
0.800000 1.100000 0.000000
0.900000 1.100000 0.000000
1.000000 1.100000 0.000000
1.100000 1.100000 0.000000
1.200000 1.100000 0.000000
1.300000 1.100000 0.000000
1.400000 1.100000 0.000000
0.000000 1.200000 0.000000
0.100000 1.200000 0.000000
0.200000 1.200000 0.000000
0.300000 1.200000 0.000000
0.400000 1.200000 0.000000
0.500000 1.200000 0.000000
0.600000 1.200000 0.000000
0.700000 1.200000 0.000000
0.800000 1.200000 0.000000
0.900000 1.200000 0.000000
1.000000 1.200000 0.000000
1.100000 1.200000 0.000000
1.200000 1.200000 0.000000
1.300000 1.200000 0.000000
1.400000 1.200000 0.000000
0.000000 1.300000 0.000000
0.100000 1.300000 0.000000
0.200000 1.300000 0.000000
0.300000 1.300000 0.000000
0.400000 1.300000 0.000000
0.500000 1.300000 0.000000
0.600000 1.300000 0.000000
0.700000 1.300000 0.000000
0.800000 1.300000 0.000000
0.900000 1.300000 0.000000
1.000000 1.300000 0.000000
1.100000 1.300000 0.000000
1.200000 1.300000 0.000000
1.300000 1.300000 0.000000
1.400000 1.300000 0.000000
0.000000 1.400000 0.000000
0.100000 1.400000 0.000000
0.200000 1.400000 0.000000
0.300000 1.400000 0.000000
0.400000 1.400000 0.000000
0.500000 1.400000 0.000000
0.600000 1.400000 0.000000
0.700000 1.400000 0.000000
0.800000 1.400000 0.000000
0.900000 1.400000 0.000000
1.000000 1.400000 0.000000
1.100000 1.400000 0.000000
1.200000 1.400000 0.000000
1.300000 1.400000 0.000000
1.400000 1.400000 0.000000
0.000000 1.500000 0.000000
0.100000 1.500000 0.000000
0.200000 1.500000 0.000000
0.300000 1.500000 0.000000
0.400000 1.500000 0.000000
0.500000 1.500000 0.000000
0.600000 1.500000 0.000000
0.700000 1.500000 0.000000
0.800000 1.500000 0.000000
0.900000 1.500000 0.000000
1.000000 1.500000 0.000000
1.100000 1.500000 0.000000
1.200000 1.500000 0.000000
1.300000 1.500000 0.000000
1.400000 1.500000 0.000000
0.000000 1.600000 0.000000
0.100000 1.600000 0.000000
0.200000 1.600000 0.000000
0.300000 1.600000 0.000000
0.400000 1.600000 0.000000
0.500000 1.600000 0.000000
0.600000 1.600000 0.000000
0.700000 1.600000 0.000000
0.800000 1.600000 0.000000
0.900000 1.600000 0.000000
1.000000 1.600000 0.000000
1.100000 1.600000 0.000000
1.200000 1.600000 0.000000
1.300000 1.600000 0.000000
1.400000 1.600000 0.000000
0.000000 1.700000 0.000000
0.100000 1.700000 0.000000
0.200000 1.700000 0.000000
0.300000 1.700000 0.000000
0.400000 1.700000 0.000000
0.500000 1.700000 0.000000
0.600000 1.700000 0.000000
0.700000 1.700000 0.000000
0.800000 1.700000 0.000000
0.900000 1.700000 0.000000
1.000000 1.700000 0.000000
1.100000 1.700000 0.000000
1.200000 1.700000 0.000000
1.300000 1.700000 0.000000
1.400000 1.700000 0.000000
0.000000 1.800000 0.000000
0.100000 1.800000 0.000000
0.200000 1.800000 0.000000
0.300000 1.800000 0.000000
0.400000 1.800000 0.000000
0.500000 1.800000 0.000000
0.600000 1.800000 0.000000
0.700000 1.800000 0.000000
0.800000 1.800000 0.000000
0.900000 1.800000 0.000000
1.000000 1.800000 0.000000
1.100000 1.800000 0.000000
1.200000 1.800000 0.000000
1.300000 1.800000 0.000000
1.400000 1.800000 0.000000
0.000000 1.900000 0.000000
0.100000 1.900000 0.000000
0.200000 1.900000 0.000000
0.300000 1.900000 0.000000
0.400000 1.900000 0.000000
0.500000 1.900000 0.000000
0.600000 1.900000 0.000000
0.700000 1.900000 0.000000
0.800000 1.900000 0.000000
0.900000 1.900000 0.000000
1.000000 1.900000 0.000000
1.100000 1.900000 0.000000
1.200000 1.900000 0.000000
1.300000 1.900000 0.000000
1.400000 1.900000 0.000000
0.000000 2.000000 0.000000
0.100000 2.000000 0.000000
0.200000 2.000000 0.000000
0.300000 2.000000 0.000000
0.400000 2.000000 0.000000
0.500000 2.000000 0.000000
0.600000 2.000000 0.000000
0.700000 2.000000 0.000000
0.800000 2.000000 0.000000
0.900000 2.000000 0.000000
1.000000 2.000000 0.000000
1.100000 2.000000 0.000000
1.200000 2.000000 0.000000
1.300000 2.000000 0.000000
1.400000 2.000000 0.000000
0.000000 1.000000 0.100000
0.100000 1.000000 0.100000
0.200000 1.000000 0.100000
0.300000 1.000000 0.100000
0.400000 1.000000 0.100000
0.500000 1.000000 0.100000
0.600000 1.000000 0.100000
0.700000 1.000000 0.100000
0.800000 1.000000 0.100000
0.900000 1.000000 0.100000
1.000000 1.000000 0.100000
1.100000 1.000000 0.100000
1.200000 1.000000 0.100000
1.300000 1.000000 0.100000
1.400000 1.000000 0.100000
0.000000 1.100000 0.100000
0.100000 1.100000 0.100000
0.200000 1.100000 0.100000
0.300000 1.100000 0.100000
0.400000 1.100000 0.100000
0.500000 1.100000 0.100000
0.600000 1.100000 0.100000
0.700000 1.100000 0.100000
0.800000 1.100000 0.100000
0.900000 1.100000 0.100000
1.000000 1.100000 0.100000
1.100000 1.100000 0.100000
1.200000 1.100000 0.100000
1.300000 1.100000 0.100000
1.400000 1.100000 0.100000
0.000000 1.200000 0.100000
0.100000 1.200000 0.100000
0.200000 1.200000 0.100000
0.300000 1.200000 0.100000
0.400000 1.200000 0.100000
0.500000 1.200000 0.100000
0.600000 1.200000 0.100000
0.700000 1.200000 0.100000
0.800000 1.200000 0.100000
0.900000 1.200000 0.100000
1.000000 1.200000 0.100000
1.100000 1.200000 0.100000
1.200000 1.200000 0.100000
1.300000 1.200000 0.100000
1.400000 1.200000 0.100000
0.000000 1.300000 0.100000
0.100000 1.300000 0.100000
0.200000 1.300000 0.100000
0.300000 1.300000 0.100000
0.400000 1.300000 0.100000
0.500000 1.300000 0.100000
0.600000 1.300000 0.100000
0.700000 1.300000 0.100000
0.800000 1.300000 0.100000
0.900000 1.300000 0.100000
1.000000 1.300000 0.100000
1.100000 1.300000 0.100000
1.200000 1.300000 0.100000
1.300000 1.300000 0.100000
1.400000 1.300000 0.100000
0.000000 1.400000 0.100000
0.100000 1.400000 0.100000
0.200000 1.400000 0.100000
0.300000 1.400000 0.100000
0.400000 1.400000 0.100000
0.500000 1.400000 0.100000
0.600000 1.400000 0.100000
0.700000 1.400000 0.100000
0.800000 1.400000 0.100000
0.900000 1.400000 0.100000
1.000000 1.400000 0.100000
1.100000 1.400000 0.100000
1.200000 1.400000 0.100000
1.300000 1.400000 0.100000
1.400000 1.400000 0.100000
0.000000 1.500000 0.100000
0.100000 1.500000 0.100000
0.200000 1.500000 0.100000
0.300000 1.500000 0.100000
0.400000 1.500000 0.100000
0.500000 1.500000 0.100000
0.600000 1.500000 0.100000
0.700000 1.500000 0.100000
0.800000 1.500000 0.100000
0.900000 1.500000 0.100000
1.000000 1.500000 0.100000
1.100000 1.500000 0.100000
1.200000 1.500000 0.100000
1.300000 1.500000 0.100000
1.400000 1.500000 0.100000
0.000000 1.600000 0.100000
0.100000 1.600000 0.100000
0.200000 1.600000 0.100000
0.300000 1.600000 0.100000
0.400000 1.600000 0.100000
0.500000 1.600000 0.100000
0.600000 1.600000 0.100000
0.700000 1.600000 0.100000
0.800000 1.600000 0.100000
0.900000 1.600000 0.100000
1.000000 1.600000 0.100000
1.100000 1.600000 0.100000
1.200000 1.600000 0.100000
1.300000 1.600000 0.100000
1.400000 1.600000 0.100000
0.000000 1.700000 0.100000
0.100000 1.700000 0.100000
0.200000 1.700000 0.100000
0.300000 1.700000 0.100000
0.400000 1.700000 0.100000
0.500000 1.700000 0.100000
0.600000 1.700000 0.100000
0.700000 1.700000 0.100000
0.800000 1.700000 0.100000
0.900000 1.700000 0.100000
1.000000 1.700000 0.100000
1.100000 1.700000 0.100000
1.200000 1.700000 0.100000
1.300000 1.700000 0.100000
1.400000 1.700000 0.100000
0.000000 1.800000 0.100000
0.100000 1.800000 0.100000
0.200000 1.800000 0.100000
0.300000 1.800000 0.100000
0.400000 1.800000 0.100000
0.500000 1.800000 0.100000
0.600000 1.800000 0.100000
0.700000 1.800000 0.100000
0.800000 1.800000 0.100000
0.900000 1.800000 0.100000
1.000000 1.800000 0.100000
1.100000 1.800000 0.100000
1.200000 1.800000 0.100000
1.300000 1.800000 0.100000
1.400000 1.800000 0.100000
0.000000 1.900000 0.100000
0.100000 1.900000 0.100000
0.200000 1.900000 0.100000
0.300000 1.900000 0.100000
0.400000 1.900000 0.100000
0.500000 1.900000 0.100000
0.600000 1.900000 0.100000
0.700000 1.900000 0.100000
0.800000 1.900000 0.100000
0.900000 1.900000 0.100000
1.000000 1.900000 0.100000
1.100000 1.900000 0.100000
1.200000 1.900000 0.100000
1.300000 1.900000 0.100000
1.400000 1.900000 0.100000
0.000000 2.000000 0.100000
0.100000 2.000000 0.100000
0.200000 2.000000 0.100000
0.300000 2.000000 0.100000
0.400000 2.000000 0.100000
0.500000 2.000000 0.100000
0.600000 2.000000 0.100000
0.700000 2.000000 0.100000
0.800000 2.000000 0.100000
0.900000 2.000000 0.100000
1.000000 2.000000 0.100000
1.100000 2.000000 0.100000
1.200000 2.000000 0.100000
1.300000 2.000000 0.100000
1.400000 2.000000 0.100000
0.000000 1.000000 0.200000
0.100000 1.000000 0.200000
0.200000 1.000000 0.200000
0.300000 1.000000 0.200000
0.400000 1.000000 0.200000
0.500000 1.000000 0.200000
0.600000 1.000000 0.200000
0.700000 1.000000 0.200000
0.800000 1.000000 0.200000
0.900000 1.000000 0.200000
1.000000 1.000000 0.200000
1.100000 1.000000 0.200000
1.200000 1.000000 0.200000
1.300000 1.000000 0.200000
1.400000 1.000000 0.200000
0.000000 1.100000 0.200000
0.100000 1.100000 0.200000
0.200000 1.100000 0.200000
0.300000 1.100000 0.200000
0.400000 1.100000 0.200000
0.500000 1.100000 0.200000
0.600000 1.100000 0.200000
0.700000 1.100000 0.200000
0.800000 1.100000 0.200000
0.900000 1.100000 0.200000
1.000000 1.100000 0.200000
1.100000 1.100000 0.200000
1.200000 1.100000 0.200000
1.300000 1.100000 0.200000
1.400000 1.100000 0.200000
0.000000 1.200000 0.200000
0.100000 1.200000 0.200000
0.200000 1.200000 0.200000
0.300000 1.200000 0.200000
0.400000 1.200000 0.200000
[...]
CELL_DATA 2800
SCALARS pressure float 1
LOOKUP_TABLE default
60.5734
43.783
36.2167
32.5078
30.4414
29.0986
28.0831
27.2102
26.3819
25.5382
24.6392
23.6587
22.5874
21.4344
59.9526
43.5018
36.0878
32.4482
30.4133
29.0836
28.0721
27.1983
26.367
25.5202
24.6197
23.6406
22.5743
21.4296
58.7201
42.9477
35.8369
32.3347
30.3616
29.0577
28.0536
27.178
26.3408
25.488
24.5843
23.6074
22.5498
21.4198
56.8963
42.1396
35.4796
32.1797
30.2964
29.0291
28.0353
27.1567
26.3112
25.4495
24.5407
23.5657
22.5184
21.4065
54.5162
41.1089
35.0413
32.0026
30.2325
29.0096
28.0271
27.1439
26.2872
25.4143
24.4983
23.5236
22.4859
21.3922
51.6368
39.9058
34.5607
31.8312
30.1892
29.0129
28.0396
27.1485
26.2777
25.3908
24.4653
23.4887
22.458
21.3796
48.3548
38.6111
34.0948
31.7025
30.1892
29.0528
28.0813
27.1768
26.288
25.3843
24.447
23.4657
22.4383
21.3707
44.8489
37.3596
33.7272
31.6615
30.2539
29.1376
28.1546
27.2287
26.3176
25.3949
24.444
23.4556
22.4278
21.3659
41.4899
36.3799
33.5651
31.7461
30.3881
29.259
28.2475
27.2928
26.3573
25.4159
24.4517
23.4555
22.425
21.3645
39.1404
36.0206
33.6821
31.9275
30.538
29.3661
28.3196
27.3397
26.3868
25.4334
24.4615
23.4603
22.4269
21.3652
46.9542
41.1425
36.369
33.1695
31.0395
29.5312
28.3634
27.3705
26.4528
25.5461
24.6089
23.6136
22.5493
21.4212
46.6125
40.9175
36.2386
33.0975
31.0002
29.5087
28.3483
27.3573
26.4388
25.5307
24.5927
23.5988
22.5384
21.4168
45.9373
40.4758
35.9847
32.9593
30.9264
29.4676
28.3213
27.3341
26.414
25.5029
24.5633
23.5714
22.518
21.4078
44.9474
39.8353
35.6229
32.7676
30.828
29.4161
28.2897
27.3073
26.3849
25.4693
24.5269
23.5371
22.4919
21.3958
43.6748
39.0265
35.1785
32.5417
30.7197
29.3653
28.2625
27.2854
26.3594
25.4379
24.4914
23.5026
22.4651
21.3832
42.1709
38.0964
34.6886
32.3086
30.6201
29.3283
28.2494
27.2762
26.3451
25.416
24.4638
23.4743
22.4424
21.3724
40.5197
37.118
34.206
32.1028
30.5505
29.3176
28.2581
27.2854
26.3466
25.4082
24.4487
23.4564
22.4272
21.3652
38.8661
36.2048
33.8034
31.9645
30.5302
29.3412
28.2913
27.3134
26.3643
25.4153
24.4476
23.4506
22.4209
21.3624
37.4683
35.5307
33.5717
31.9305
30.5677
29.3955
28.3414
27.353
26.3926
25.4339
24.4585
23.4562
22.4235
21.3639
36.7713
35.3411
33.6005
32.0121
30.6446
29.4555
28.3862
27.387
26.4198
25.4564
24.4775
23.4715
22.4345
21.37
39.6053
37.6874
35.1227
32.8693
31.0806
29.6652
28.4993
27.4813
26.5362
25.6087
24.6575
23.6532
22.5829
21.4526
39.4131
37.5334
35.0178
32.8032
31.0403
29.6398
28.4812
27.4655
26.5199
25.5909
24.6389
23.6361
22.5702
21.4468
39.0362
37.2329
34.8144
32.6767
30.9641
29.5927
28.4482
27.437
26.4906
25.5586
24.605
23.6044
22.5461
21.4347
38.4918
36.8026
34.5273
32.5016
30.8619
29.532
28.4075
27.4027
26.4551
25.5192
24.5629
23.5645
22.5149
21.4178
37.8084
36.2694
34.1792
32.296
30.7473
29.4684
28.368
27.371
26.422
25.4815
24.5216
23.5246
22.4831
21.4001
37.0296
35.6737
33.8027
32.084
30.6376
29.4143
28.3394
27.35
26.3992
25.4534
24.4892
23.4922
22.4566
21.3853
36.2221
35.0737
33.4414
31.8953
30.5517
29.3817
28.3296
27.3458
26.3921
25.4404
24.4711
23.4722
22.4393
21.3756
35.4876
34.5512
33.1513
31.7635
30.5078
29.3794
28.3426
27.3606
26.4026
25.4446
24.4695
23.467
22.4334
21.3722
34.9745
34.2152
32.9986
31.7218
30.5187
29.4098
28.3767
27.3918
26.4286
25.4651
24.4847
23.4774
22.4399
21.3755
34.8495
34.1924
33.0518
31.7958
30.5871
29.4662
28.423
27.4315
26.4647
25.4987
24.5156
23.504
22.4598
21.3866
35.6352
35.0295
33.6857
32.1987
30.8189
29.603
28.5298
27.5557
26.6352
25.7256
24.7848
23.7764
22.6842
21.5304
35.5221
34.9286
33.6087
32.1449
30.7823
29.5771
28.5089
27.5355
26.613
25.7003
24.7576
23.7511
22.6656
21.5214
35.3028
34.7336
33.4609
32.0423
30.7135
29.5291
28.4707
27.499
26.5729
25.6541
24.7075
23.7037
22.6298
21.5014
34.993
34.4592
33.255
31.9019
30.6215
29.467
28.4229
27.4542
26.5236
25.5972
24.645
23.6435
22.5826
21.4713
34.6175
34.1286
33.011
31.7397
30.5192
29.4014
28.3752
27.4108
26.4762
25.5422
24.5843
23.5842
22.5345
21.4398
34.212
33.7742
32.7553
31.576
30.4219
29.3442
28.3375
27.3784
26.4406
25.4999
24.5366
23.5367
22.4948
21.4142
33.8267
33.4389
32.5212
31.4349
30.346
29.3067
28.3182
27.3641
26.4236
25.4771
24.5085
23.5071
22.4691
21.3977
33.5271
33.1758
32.3477
31.3421
30.3074
29.2981
28.323
27.3719
26.4288
25.4771
24.5034
23.4986
22.4599
21.3912
33.3864
33.0429
32.2758
31.3223
30.3186
29.3239
28.3537
27.4024
26.4565
25.501
24.5226
23.5128
22.4689
21.3952
33.4331
33.0866
32.3433
31.397
30.3883
29.3852
28.4081
27.4529
26.5052
25.5483
24.5671
23.5515
22.4982
21.4116
33.3942
33.2086
32.4718
31.4887
30.4513
29.4484
28.506
27.6185
26.7648
25.9127
25.0144
24.0091
22.8594
21.6735
33.3242
33.1427
32.4174
31.4469
30.4195
29.4226
28.4817
27.5917
26.7322
25.873
24.9695
23.9666
22.8306
21.6598
33.1906
33.0169
32.3138
31.3679
30.3601
29.3748
28.4373
27.543
26.673
25.7999
24.8856
23.8856
22.7733
21.6253
33.0075
32.8441
32.1725
31.2615
30.2818
29.3136
28.3818
27.4829
26.6002
25.7094
24.7802
23.7807
22.697
21.5658
32.7962
32.6436
32.0099
31.1416
30.1963
29.2496
28.3261
27.4241
26.5298
25.6229
24.6806
23.6817
22.6183
21.505
32.5859
32.4407
31.847
31.025
30.1174
29.1945
28.2813
27.3784
26.4752
25.5561
24.604
23.605
22.5542
21.4581
32.4126
32.2656
31.7079
30.9301
30.0587
29.159
28.2564
27.3543
26.4453
25.5173
24.5579
23.5573
22.5127
21.4288
32.3162
32.1501
31.6175
30.8752
30.033
29.1518
28.2579
27.3571
26.4445
25.5105
24.5451
23.5409
22.4963
21.4162
32.3248
32.1189
31.5973
30.8762
30.0505
29.1789
28.2893
27.3892
26.4748
25.5374
24.5671
23.5571
22.5061
21.4198
32.4082
32.1761
31.662
30.9456
30.1186
29.2436
28.3514
27.4506
26.5368
25.5992
24.6261
23.6089
22.5453
21.4416
32.067
32.0006
31.5557
30.8783
30.0915
29.2744
28.4689
27.6915
26.941
26.197
25.4018
24.4286
23.0958
21.9132
32.0211
31.9567
31.5172
30.846
30.0637
29.2481
28.44
27.6552
26.8926
26.1328
25.324
24.3523
23.0529
21.8951
31.9354
31.8741
31.4448
30.7854
30.0122
29.1998
28.3873
27.5893
26.804
26.0137
25.1754
24.2019
22.9662
21.8403
31.8225
31.7642
31.3484
30.7056
29.9454
29.1385
28.3216
27.5079
26.6946
25.8648
24.9836
23.9952
22.856
21.7204
31.7011
31.643
31.2418
30.6185
29.8745
29.0756
28.2562
27.4286
26.5902
25.7269
24.8138
23.8201
22.7326
21.6013
31.5945
31.5301
31.1415
30.5379
29.8115
29.0227
28.2036
27.3663
26.5095
25.6229
24.6902
23.6947
22.6314
21.5165
31.5286
31.4464
31.0643
30.4777
29.7681
28.99
28.1735
27.3309
26.4625
25.5612
24.6164
23.6188
22.5662
21.4666
31.5261
31.409
31.0249
30.4502
29.7541
28.9855
28.1729
27.3285
26.4539
25.544
24.5913
23.5895
22.5383
21.4445
31.5906
31.4239
31.0321
30.4642
29.7768
29.0147
28.2056
27.3622
26.4861
25.5725
24.6143
23.6059
22.5474
21.4462
31.6701
31.4757
31.0869
30.5248
29.8406
29.0803
28.2735
27.4334
26.5608
25.6489
24.6882
23.6711
22.5967
21.4731
31.2553
31.2102
30.9047
30.4069
29.7919
29.1219
28.4421
27.7839
27.1683
26.6023
26.0489
25.2882
23.4016
22.2289
31.2232
31.1797
30.8766
30.3811
29.7667
29.0943
28.4074
27.7357
27.0982
26.5011
25.9127
25.1381
23.3338
22.2103
31.1647
31.1234
30.8246
30.3333
29.7204
29.0438
28.3443
27.6479
26.9691
26.31
25.6451
24.8348
23.1613
22.1501
31.0912
31.0513
30.7573
30.2717
29.6614
28.9805
28.2661
27.5396
26.8091
26.0663
25.2736
24.3262
23.0201
21.9422
31.0194
30.977
30.6866
30.207
29.6004
28.9166
28.1888
27.4351
26.6597
25.8521
24.9829
24.0001
22.8626
21.7272
30.9683
30.9159
30.6252
30.1507
29.5486
28.864
28.127
27.3532
26.5461
25.6978
24.7902
23.7997
22.7179
21.5852
30.9568
30.8823
30.5853
30.1134
29.516
28.8329
28.0911
27.3051
26.4786
25.6069
24.6796
23.6858
22.6237
21.5071
30.9968
30.8846
30.5747
30.1031
29.51
28.8302
28.088
27.2968
26.4606
25.5766
24.6382
23.6397
22.5815
21.4728
31.0789
30.9183
30.5947
30.1237
29.5355
28.8607
28.1217
27.3315
26.4937
25.6053
24.6604
23.6543
22.5883
21.4714
31.1456
30.9609
30.6392
30.1757
29.5947
28.9263
28.1942
27.4113
26.5801
25.6955
24.7486
23.7325
22.647
21.5027
30.7586
30.7064
30.4672
30.0727
29.5698
29.0075
28.4315
27.8859
27.4187
27.0963
27.0408
27.4235
0.0
0.0
30.7343
30.6838
30.4455
30.051
29.546
28.978
28.3908
27.825
27.3242
26.9487
26.8145
27.0898
0.0
0.0
30.691
30.6429
30.406
30.0112
29.5025
28.9245
28.3169
27.7139
27.1489
26.6654
26.361
26.4333
0.0
0.0
30.6395
30.5927
30.3564
29.9609
29.4477
28.8577
28.2254
27.5769
26.93
26.2906
25.6367
24.8306
23.1547
22.1443
30.5946
30.5452
30.3072
29.9101
29.3925
28.7912
28.1358
27.4461
26.7308
25.9827
25.1679
24.2054
22.9727
21.8482
30.5728
30.5129
30.2688
29.8687
29.3474
28.7374
28.0644
27.3443
26.5825
25.7719
24.8908
23.9056
22.7975
21.6488
30.5884
30.5059
30.2499
29.8451
29.3212
28.7063
28.0225
27.2835
26.4941
25.65
24.7396
23.7493
22.6763
21.5432
30.6466
30.5273
30.2546
29.8445
29.3199
28.7043
28.0167
27.2693
26.4664
25.6057
24.6807
23.6852
22.6201
21.4972
30.732
30.5678
30.2798
29.868
29.3467
28.7353
28.0509
27.3044
26.4995
25.6336
24.701
23.6972
22.6241
21.4927
30.7868
30.6025
30.3164
29.9134
29.402
28.8008
28.127
27.3914
26.596
25.7359
24.8018
23.7867
22.691
21.5271
30.4721
30.4084
30.1999
29.8618
29.426
28.9339
28.4313
27.9706
27.6175
27.4674
27.6731
28.4891
0.0
0.0
30.4519
30.3901
30.1818
29.8423
29.4028
28.9027
28.3856
27.8995
27.5034
27.2835
27.3831
28.0417
0.0
0.0
30.4166
30.3576
30.1492
29.8069
29.3604
28.8462
28.3028
27.7696
27.2913
26.93
26.8025
27.0741
0.0
0.0
30.3765
30.3193
30.1096
29.763
29.3076
28.7761
28.2005
27.6095
27.0266
26.4638
25.8944
25.1259
23.3178
22.2002
30.3456
30.2861
30.0721
29.7199
29.2552
28.7067
28.1007
27.4576
26.788
26.0853
25.3086
24.352
23.057
21.9023
30.3385
30.2687
30.0461
29.6867
29.2134
28.6511
28.0215
27.3399
26.612
25.8302
24.9689
23.9856
22.8557
21.6853
30.3667
30.2749
30.0382
29.6704
29.1905
28.6192
27.9746
27.2689
26.5068
25.6835
24.7859
23.7976
22.7152
21.5668
30.4322
30.3051
30.0503
29.6748
29.1916
28.6171
27.9664
27.2498
26.4711
25.6279
24.713
23.7196
22.6487
21.5142
30.5164
30.3473
30.0774
29.6993
29.2187
28.6483
28.0008
27.2851
26.504
25.6549
24.7315
23.7293
22.6506
21.5077
30.5628
30.3767
30.1089
29.7404
29.2717
28.7139
28.0796
27.3773
26.6081
25.7661
24.8417
23.8272
22.7235
21.5444
30.3409
30.2702
30.0739
29.7607
29.3564
28.8986
28.4337
28.0179
27.7251
27.6615
27.9895
28.9615
0.0
0.0
30.3225
30.2538
30.0574
29.7422
29.3332
28.8665
28.3853
27.9412
27.6004
27.4586
27.6672
28.4619
0.0
0.0
30.2906
30.225
30.0279
29.7087
29.2912
28.8082
28.2975
27.8011
27.3685
27.0688
27.024
27.3932
0.0
0.0
30.2555
30.1919
29.9925
29.6676
29.2391
28.736
28.1892
27.6285
27.0795
26.556
26.0266
25.2717
23.369
22.2089
30.2304
30.1647
29.9602
29.6278
29.1877
28.6648
28.0838
27.465
26.8197
26.1408
25.3831
24.4272
23.098
21.9193
30.2294
30.1537
29.9395
29.5981
29.1472
28.608
28.0002
27.3385
26.6285
25.8621
25.011
24.0279
22.8854
21.7002
30.2625
30.1653
29.9363
29.5849
29.1256
28.5754
27.9503
27.2618
26.5141
25.7019
24.8111
23.8236
22.7355
21.5779
30.3303
30.1986
29.9513
29.5912
29.1275
28.5731
27.9408
27.24
26.4741
25.6401
24.7306
23.7382
22.664
21.5228
30.413
30.2411
29.9788
29.6159
29.1547
28.6043
27.9753
27.2753
26.5068
25.6665
24.7481
23.7467
22.6648
21.5156
30.4553
30.2679
30.0078
29.655
29.2064
28.6699
28.0555
27.3704
26.6148
25.7825
24.8634
23.8491
22.7409
21.5534
30.3411
30.2704
30.0741
29.7609
29.3566
28.8989
28.434
28.0183
27.7257
27.6623
27.9904
28.9623
0.0
0.0
30.3227
30.254
30.0576
29.7424
29.3335
28.8668
28.3857
27.9417
27.6011
27.4597
27.6692
28.4659
0.0
0.0
30.2908
30.2252
30.0281
29.7089
29.2914
28.8085
28.2979
27.8015
27.3693
27.07
27.0267
27.3995
0.0
0.0
30.2557
30.1921
29.9927
29.6678
29.2393
28.7363
28.1896
27.6289
27.0802
26.5571
26.0282
25.2741
23.3702
22.2095
30.2307
30.1649
29.9604
29.628
29.1879
28.6651
28.0841
27.4654
26.8202
26.1416
25.3841
24.4284
23.0989
21.92
30.2296
30.1539
29.9397
29.5983
29.1474
28.6082
28.0005
27.3388
26.629
25.8627
25.0117
24.0287
22.8861
21.7009
30.2627
30.1655
29.9365
29.5851
29.1258
28.5756
27.9506
27.2622
26.5145
25.7024
24.8116
23.8242
22.7361
21.5785
30.3306
30.1988
29.9515
29.5914
29.1277
28.5733
27.9411
27.2403
26.4744
25.6405
24.731
23.7387
22.6646
21.5234
30.4132
30.2413
29.979
29.6161
29.1549
28.6045
27.9755
27.2756
26.5072
25.6669
24.7486
23.7472
22.6654
21.5162
30.4555
30.2681
30.0081
29.6552
29.2066
28.6701
28.0558
27.3707
26.6152
25.783
24.8639
23.8497
22.7415
21.554
30.4727
30.409
30.2004
29.8623
29.4267
28.9346
28.4321
27.9717
27.6191
27.4694
27.6756
28.491
0.0
0.0
30.4525
30.3907
30.1824
29.8429
29.4034
28.9035
28.3866
27.9007
27.5053
27.2865
27.3883
28.0521
0.0
0.0
30.4172
30.3582
30.1498
29.8075
29.361
28.847
28.3037
27.7709
27.2933
26.9335
26.8095
27.0909
0.0
0.0
30.3772
30.3199
30.1101
29.7636
29.3083
28.7768
28.2014
27.6108
27.0284
26.4665
25.8988
25.1326
23.3218
22.2026
30.3463
30.2867
30.0727
29.7205
29.2559
28.7074
28.1016
27.4588
26.7895
26.0873
25.3114
24.3555
23.0598
21.9046
30.3392
30.2693
30.0467
29.6873
29.2141
28.6519
28.0224
27.3409
26.6133
25.8318
24.9708
23.9878
22.8579
21.6873
30.3674
30.2755
30.0388
29.671
29.1912
28.6199
27.9754
27.2699
26.5079
25.6848
24.7874
23.7993
22.7169
21.5685
30.4329
30.3057
30.0509
29.6754
29.1922
28.6179
27.9673
27.2507
26.4722
25.6291
24.7144
23.7211
22.6503
21.5158
30.517
30.348
30.078
29.6999
29.2194
28.6491
28.0017
27.286
26.5051
25.6561
24.7329
23.7309
22.6522
21.5093
30.5635
30.3774
30.1096
29.741
29.2723
28.7146
28.0805
27.3783
26.6092
25.7674
24.8433
23.8289
22.7252
21.5462
30.7596
30.7073
30.4681
30.0736
29.5708
29.0086
28.4329
27.8876
27.421
27.0993
27.0442
27.4252
0.0
0.0
30.7353
30.6847
30.4464
30.0519
29.547
28.9792
28.3923
27.8269
27.327
26.9528
26.8211
27.1016
0.0
0.0
30.692
30.6438
30.4069
30.0121
29.5035
28.9257
28.3183
27.7159
27.1518
26.67
26.3698
26.4539
0.0
0.0
30.6405
30.5937
30.3573
29.9619
29.4488
28.8589
28.2268
27.5788
26.9326
26.2945
25.6426
24.8395
23.1613
22.1496
30.5957
30.5462
30.3081
29.9111
29.3936
28.7924
28.1372
27.4479
26.733
25.9856
25.1719
24.2103
22.9772
21.8522
30.5739
30.5138
30.2697
29.8697
29.3484
28.7386
28.0658
27.346
26.5845
25.7743
24.8937
23.9089
22.8009
21.652
30.5894
30.5069
30.2509
29.8461
29.3222
28.7074
28.0238
27.2851
26.4959
25.652
24.742
23.7519
22.6791
21.5459
30.6477
30.5283
30.2555
29.8455
29.321
28.7054
28.018
27.2708
26.4681
25.6076
24.6828
23.6875
22.6226
21.4997
30.7331
30.5688
30.2808
29.869
29.3477
28.7365
28.0522
27.306
26.5013
25.6356
24.7032
23.6996
22.6266
21.4952
30.7878
30.6035
30.3175
29.9144
29.4031
28.802
28.1284
27.393
26.5979
25.738
24.8042
23.7893
22.6938
21.53
31.2566
31.2114
30.9058
30.4081
29.7932
29.1234
28.4439
27.7861
27.1712
26.606
26.0536
25.294
23.4101
22.2388
31.2245
31.1809
30.8778
30.3823
29.7681
29.0958
28.4093
27.7381
27.1014
26.5056
25.9192
25.1475
23.3466
22.2238
31.166
31.1246
30.8258
30.3346
29.7218
29.0454
28.3462
27.6504
26.9724
26.3148
25.6523
24.8464
23.1771
22.1652
31.0926
31.0525
30.7585
30.273
29.6628
28.9821
28.268
27.542
26.8121
26.0705
25.2794
24.334
23.0287
21.9508
31.0208
30.9783
30.6878
30.2083
29.6018
28.9181
28.1907
27.4373
26.6624
25.8556
24.9873
24.0054
22.8683
21.7328
30.9697
30.9172
30.6265
30.152
29.55
28.8656
28.1288
27.3553
26.5486
25.7008
24.7937
23.8037
22.7222
21.5895
30.9582
30.8836
30.5866
30.1147
29.5174
28.8344
28.0929
27.3071
26.4809
25.6096
24.6826
23.6892
22.6273
21.5107
30.9982
30.8859
30.576
30.1044
29.5114
28.8318
28.0898
27.2988
26.4629
25.5791
24.641
23.6427
22.5847
21.476
31.0804
30.9197
30.5961
30.1251
29.537
28.8622
28.1235
27.3335
26.496
25.6079
24.6632
23.6574
22.5915
21.4748
31.1471
30.9623
30.6406
30.1771
29.5962
28.9279
28.196
27.4134
26.5825
25.6983
24.7517
23.7359
22.6506
21.5063
32.0685
32.002
31.5571
30.8798
30.0931
29.2762
28.471
27.694
26.9442
26.201
25.4069
24.435
23.1039
21.9227
32.0227
31.9581
31.5186
30.8474
30.0653
29.2499
28.4422
27.6579
26.896
26.1373
25.3298
24.3599
23.0623
21.9056
31.937
31.8756
31.4462
30.7869
30.0138
29.2017
28.3895
27.592
26.8074
26.0182
25.1815
24.21
22.976
21.8508
31.8242
31.7657
31.3499
30.7071
29.9471
29.1404
28.3238
27.5106
26.6978
25.869
24.9889
24.0018
22.8635
21.7283
31.7027
31.6445
31.2433
30.62
29.8761
29.0774
28.2584
27.4312
26.5933
25.7306
24.8183
23.8254
22.7383
21.6073
31.5961
31.5317
31.143
30.5394
29.8132
29.0245
28.2057
27.3687
26.5123
25.6262
24.694
23.699
22.636
21.5213
31.5303
31.448
31.0658
30.4793
29.7698
28.9919
28.1756
27.3333
26.4652
25.5642
24.6198
23.6226
22.5702
21.4707
31.5279
31.4107
31.0265
30.4519
29.7559
28.9874
28.175
27.3309
26.4566
25.547
24.5945
23.5931
22.5421
21.4483
31.5923
31.4256
31.0338
30.4659
29.7785
29.0166
28.2077
27.3646
26.4888
25.5756
24.6176
23.6095
22.5512
21.4501
31.6719
31.4775
31.0886
30.5265
29.8424
29.0823
28.2757
27.4359
26.5636
25.6521
24.6918
23.675
22.6008
21.4774
33.3959
33.2102
32.4733
31.4903
30.453
29.4503
28.5082
27.6212
26.7681
25.9169
25.0194
24.0151
22.8665
21.6816
33.3259
33.1443
32.419
31.4486
30.4213
29.4246
28.484
27.5945
26.7357
25.8773
24.9748
23.9731
22.8381
21.6681
33.1924
33.0185
32.3154
31.3696
30.3619
29.3769
28.4397
27.5458
26.6765
25.8043
24.891
23.8921
22.7808
21.6333
33.0093
32.8457
32.1741
31.2632
30.2836
29.3157
28.3842
27.4857
26.6036
25.7135
24.7851
23.7866
22.7036
21.5727
32.798
32.6453
32.0115
31.1434
30.1982
29.2517
28.3285
27.4269
26.533
25.6267
24.6851
23.6868
22.6239
21.5107
32.5877
32.4424
31.8487
31.0268
30.1193
29.1966
28.2836
27.3811
26.4783
25.5596
24.608
23.6094
22.5589
21.463
32.4145
32.2674
31.7097
30.9319
30.0606
29.1611
28.2587
27.357
26.4483
25.5206
24.5616
23.5613
22.517
21.4332
32.3181
32.152
31.6193
30.8771
30.035
29.1539
28.2602
27.3598
26.4475
25.5138
24.5486
23.5447
22.5003
21.4204
32.3268
32.1209
31.5993
30.8781
30.0525
29.1811
28.2916
27.3918
26.4778
25.5407
24.5707
23.561
22.5103
21.424
32.4103
32.1782
31.664
30.9475
30.1207
29.2458
28.3538
27.4533
26.5399
25.6027
24.63
23.6131
22.5498
21.4462
35.6369
35.0311
33.6873
32.2004
30.8207
29.6051
28.5321
27.5585
26.6386
25.7297
24.7897
23.7821
22.6906
21.5374
35.5239
34.9303
33.6104
32.1466
30.7842
29.5792
28.5113
27.5384
26.6165
25.7045
24.7626
23.757
22.6722
21.5284
35.3047
34.7353
33.4626
32.0441
30.7154
29.5313
28.4732
27.502
26.5764
25.6583
24.7125
23.7095
22.6362
21.5082
34.9949
34.461
33.2568
31.9038
30.6235
29.4692
28.4255
27.4571
26.527
25.6012
24.6498
23.6489
22.5886
21.4775
34.6194
34.1304
33.0128
31.7416
30.5212
29.4036
28.3777
27.4137
26.4795
25.5461
24.5887
23.5892
22.5398
21.4453
34.214
33.7761
32.7571
31.5779
30.4239
29.3464
28.34
27.3812
26.4438
25.5035
24.5406
23.5412
22.4996
21.4192
33.8287
33.4408
32.5231
31.4369
30.3481
29.3089
28.3207
27.3669
26.4267
25.4805
24.5124
23.5113
22.4735
21.4023
33.5293
33.1779
32.3497
31.3441
30.3095
29.3004
28.3255
27.3747
26.4319
25.4806
24.5072
23.5027
22.4642
21.3955
33.3886
33.045
32.2779
31.3244
30.3208
29.3262
28.3562
27.4052
26.4597
25.5045
24.5264
23.5169
22.4732
21.3996
33.4354
33.0888
32.3454
31.3991
30.3905
29.3876
28.4107
27.4558
26.5085
25.5519
24.5711
23.5559
22.5028
21.4163
39.607
37.689
35.1244
32.871
31.0824
29.6673
28.5017
27.4842
26.5396
25.6128
24.6623
23.6587
22.5891
21.4592
39.4149
37.5351
35.0195
32.805
31.0422
29.642
28.4837
27.4684
26.5234
25.5951
24.6438
23.6417
22.5764
21.4534
39.038
37.2346
34.8162
32.6785
30.9661
29.5949
28.4507
27.44
26.4941
25.5628
24.6098
23.6099
22.5522
21.4411
38.4937
36.8044
34.5291
32.5035
30.8639
29.5342
28.41
27.4057
26.4586
25.5233
24.5675
23.5697
22.5207
21.4238
37.8104
36.2713
34.1811
32.298
30.7494
29.4707
28.3706
27.3739
26.4254
25.4854
24.526
23.5295
22.4884
21.4056
37.0316
35.6757
33.8046
32.086
30.6397
29.4166
28.342
27.3528
26.4024
25.4571
24.4934
23.4968
22.4614
21.3903
36.2242
35.0757
33.4434
31.8974
30.5539
29.384
28.3321
27.3486
26.3953
25.444
24.475
23.4765
22.4439
21.3803
35.4898
34.5533
33.1534
31.7656
30.51
29.3818
28.3452
27.3635
26.4058
25.4481
24.4734
23.4711
22.4378
21.3767
34.9768
34.2174
33.0007
31.724
30.5209
29.4122
28.3793
27.3947
26.4319
25.4686
24.4886
23.4816
22.4443
21.38
34.8519
34.1947
33.054
31.798
30.5893
29.4686
28.4256
27.4345
26.468
25.5024
24.5197
23.5084
22.4644
21.3913
46.9559
41.144
36.3705
33.1711
31.0412
29.5332
28.3658
27.3734
26.4562
25.5503
24.6138
23.6193
22.5556
21.4279
46.6142
40.9192
36.2402
33.0992
31.0021
29.5108
28.3507
27.3603