# vtk DataFile Version 2.0
I need something to put here
ASCII

DATASET STRUCTURED_GRID
DIMENSIONS 15 11 21
POINTS 3465 float
0.000000 0.000000 0.000000
0.100000 0.000000 0.000000
0.200000 0.000000 0.000000
0.300000 0.000000 0.000000
0.400000 0.000000 0.000000
0.500000 0.000000 0.000000
0.600000 0.000000 0.000000
0.700000 0.000000 0.000000
0.800000 0.000000 0.000000
0.900000 0.000000 0.000000
1.000000 0.000000 0.000000
1.100000 0.000000 0.000000
1.200000 0.000000 0.000000
1.300000 0.000000 0.000000
1.400000 0.000000 0.000000
0.000000 0.100000 0.000000
0.100000 0.100000 0.000000
0.200000 0.100000 0.000000
0.300000 0.100000 0.000000
0.400000 0.100000 0.000000
0.500000 0.100000 0.000000
0.600000 0.100000 0.000000
0.700000 0.100000 0.000000
0.800000 0.100000 0.000000
0.900000 0.100000 0.000000
1.000000 0.100000 0.000000
1.100000 0.100000 0.000000
1.200000 0.100000 0.000000
1.300000 0.100000 0.000000
1.400000 0.100000 0.000000
0.000000 0.200000 0.000000
0.100000 0.200000 0.000000
0.200000 0.200000 0.000000
0.300000 0.200000 0.000000
0.400000 0.200000 0.000000
0.500000 0.200000 0.000000
0.600000 0.200000 0.000000
0.700000 0.200000 0.000000
0.800000 0.200000 0.000000
0.900000 0.200000 0.000000
1.000000 0.200000 0.000000
1.100000 0.200000 0.000000
1.200000 0.200000 0.000000
1.300000 0.200000 0.000000
1.400000 0.200000 0.000000
0.000000 0.300000 0.000000
0.100000 0.300000 0.000000
0.200000 0.300000 0.000000
0.300000 0.300000 0.000000
0.400000 0.300000 0.000000
0.500000 0.300000 0.000000
0.600000 0.300000 0.000000
0.700000 0.300000 0.000000
0.800000 0.300000 0.000000
0.900000 0.300000 0.000000
1.000000 0.300000 0.000000
1.100000 0.300000 0.000000
1.200000 0.300000 0.000000
1.300000 0.300000 0.000000
1.400000 0.300000 0.000000
0.000000 0.400000 0.000000
0.100000 0.400000 0.000000
0.200000 0.400000 0.000000
0.300000 0.400000 0.000000
0.400000 0.400000 0.000000
0.500000 0.400000 0.000000
0.600000 0.400000 0.000000
0.700000 0.400000 0.000000
0.800000 0.400000 0.000000
0.900000 0.400000 0.000000
1.000000 0.400000 0.000000
1.100000 0.400000 0.000000
1.200000 0.400000 0.000000
1.300000 0.400000 0.000000
1.400000 0.400000 0.000000
0.000000 0.500000 0.000000
0.100000 0.500000 0.000000
0.200000 0.500000 0.000000
0.300000 0.500000 0.000000
0.400000 0.500000 0.000000
0.500000 0.500000 0.000000
0.600000 0.500000 0.000000
0.700000 0.500000 0.000000
0.800000 0.500000 0.000000
0.900000 0.500000 0.000000
1.000000 0.500000 0.000000
1.100000 0.500000 0.000000
1.200000 0.500000 0.000000
1.300000 0.500000 0.000000
1.400000 0.500000 0.000000
0.000000 0.600000 0.000000
0.100000 0.600000 0.000000
0.200000 0.600000 0.000000
0.300000 0.600000 0.000000
0.400000 0.600000 0.000000
0.500000 0.600000 0.000000
0.600000 0.600000 0.000000
0.700000 0.600000 0.000000
0.800000 0.600000 0.000000
0.900000 0.600000 0.000000
1.000000 0.600000 0.000000
1.100000 0.600000 0.000000
1.200000 0.600000 0.000000
1.300000 0.600000 0.000000
1.400000 0.600000 0.000000
0.000000 0.700000 0.000000
0.100000 0.700000 0.000000
0.200000 0.700000 0.000000
0.300000 0.700000 0.000000
0.400000 0.700000 0.000000
0.500000 0.700000 0.000000
0.600000 0.700000 0.000000
0.700000 0.700000 0.000000
0.800000 0.700000 0.000000
0.900000 0.700000 0.000000
1.000000 0.700000 0.000000
1.100000 0.700000 0.000000
1.200000 0.700000 0.000000
1.300000 0.700000 0.000000
1.400000 0.700000 0.000000
0.000000 0.800000 0.000000
0.100000 0.800000 0.000000
0.200000 0.800000 0.000000
0.300000 0.800000 0.000000
0.400000 0.800000 0.000000
0.500000 0.800000 0.000000
0.600000 0.800000 0.000000
0.700000 0.800000 0.000000
0.800000 0.800000 0.000000
0.900000 0.800000 0.000000
1.000000 0.800000 0.000000
1.100000 0.800000 0.000000
1.200000 0.800000 0.000000
1.300000 0.800000 0.000000
1.400000 0.800000 0.000000
0.000000 0.900000 0.000000
0.100000 0.900000 0.000000
0.200000 0.900000 0.000000
0.300000 0.900000 0.000000
0.400000 0.900000 0.000000
0.500000 0.900000 0.000000
0.600000 0.900000 0.000000
0.700000 0.900000 0.000000
0.800000 0.900000 0.000000
0.900000 0.900000 0.000000
1.000000 0.900000 0.000000
1.100000 0.900000 0.000000
1.200000 0.900000 0.000000
1.300000 0.900000 0.000000
1.400000 0.900000 0.000000
0.000000 1.000000 0.000000
0.100000 1.000000 0.000000
0.200000 1.000000 0.000000
0.300000 1.000000 0.000000
0.400000 1.000000 0.000000
0.500000 1.000000 0.000000
0.600000 1.000000 0.000000
0.700000 1.000000 0.000000
0.800000 1.000000 0.000000
0.900000 1.000000 0.000000
1.000000 1.000000 0.000000
1.100000 1.000000 0.000000
1.200000 1.000000 0.000000
1.300000 1.000000 0.000000
1.400000 1.000000 0.000000
0.000000 0.000000 0.100000
0.100000 0.000000 0.100000
0.200000 0.000000 0.100000
0.300000 0.000000 0.100000
0.400000 0.000000 0.100000
0.500000 0.000000 0.100000
0.600000 0.000000 0.100000
0.700000 0.000000 0.100000
0.800000 0.000000 0.100000
0.900000 0.000000 0.100000
1.000000 0.000000 0.100000
1.100000 0.000000 0.100000
1.200000 0.000000 0.100000
1.300000 0.000000 0.100000
1.400000 0.000000 0.100000
0.000000 0.100000 0.100000
0.100000 0.100000 0.100000
0.200000 0.100000 0.100000
0.300000 0.100000 0.100000
0.400000 0.100000 0.100000
0.500000 0.100000 0.100000
0.600000 0.100000 0.100000
0.700000 0.100000 0.100000
0.800000 0.100000 0.100000
0.900000 0.100000 0.100000
1.000000 0.100000 0.100000
1.100000 0.100000 0.100000
1.200000 0.100000 0.100000
1.300000 0.100000 0.100000
1.400000 0.100000 0.100000
0.000000 0.200000 0.100000
0.100000 0.200000 0.100000
0.200000 0.200000 0.100000
0.300000 0.200000 0.100000
0.400000 0.200000 0.100000
0.500000 0.200000 0.100000
0.600000 0.200000 0.100000
0.700000 0.200000 0.100000
0.800000 0.200000 0.100000
0.900000 0.200000 0.100000
1.000000 0.200000 0.100000
1.100000 0.200000 0.100000
1.200000 0.200000 0.100000
1.300000 0.200000 0.100000
1.400000 0.200000 0.100000
0.000000 0.300000 0.100000
0.100000 0.300000 0.100000
0.200000 0.300000 0.100000
0.300000 0.300000 0.100000
0.400000 0.300000 0.100000
0.500000 0.300000 0.100000
0.600000 0.300000 0.100000
0.700000 0.300000 0.100000
0.800000 0.300000 0.100000
0.900000 0.300000 0.100000
1.000000 0.300000 0.100000
1.100000 0.300000 0.100000
1.200000 0.300000 0.100000
1.300000 0.300000 0.100000
1.400000 0.300000 0.100000
0.000000 0.400000 0.100000
0.100000 0.400000 0.100000
0.200000 0.400000 0.100000
0.300000 0.400000 0.100000
0.400000 0.400000 0.100000
0.500000 0.400000 0.100000
0.600000 0.400000 0.100000
0.700000 0.400000 0.100000
0.800000 0.400000 0.100000
0.900000 0.400000 0.100000
1.000000 0.400000 0.100000
1.100000 0.400000 0.100000
1.200000 0.400000 0.100000
1.300000 0.400000 0.100000
1.400000 0.400000 0.100000
0.000000 0.500000 0.100000
0.100000 0.500000 0.100000
0.200000 0.500000 0.100000
0.300000 0.500000 0.100000
0.400000 0.500000 0.100000
0.500000 0.500000 0.100000
0.600000 0.500000 0.100000
0.700000 0.500000 0.100000
0.800000 0.500000 0.100000
0.900000 0.500000 0.100000
1.000000 0.500000 0.100000
1.100000 0.500000 0.100000
1.200000 0.500000 0.100000
1.300000 0.500000 0.100000
1.400000 0.500000 0.100000
0.000000 0.600000 0.100000
0.100000 0.600000 0.100000
0.200000 0.600000 0.100000
0.300000 0.600000 0.100000
0.400000 0.600000 0.100000
0.500000 0.600000 0.100000
0.600000 0.600000 0.100000
0.700000 0.600000 0.100000
0.800000 0.600000 0.100000
0.900000 0.600000 0.100000
1.000000 0.600000 0.100000
1.100000 0.600000 0.100000
1.200000 0.600000 0.100000
1.300000 0.600000 0.100000
1.400000 0.600000 0.100000
0.000000 0.700000 0.100000
0.100000 0.700000 0.100000
0.200000 0.700000 0.100000
0.300000 0.700000 0.100000
0.400000 0.700000 0.100000
0.500000 0.700000 0.100000
0.600000 0.700000 0.100000
0.700000 0.700000 0.100000
0.800000 0.700000 0.100000
0.900000 0.700000 0.100000
1.000000 0.700000 0.100000
1.100000 0.700000 0.100000
1.200000 0.700000 0.100000
1.300000 0.700000 0.100000
1.400000 0.700000 0.100000
0.000000 0.800000 0.100000
0.100000 0.800000 0.100000
0.200000 0.800000 0.100000
0.300000 0.800000 0.100000
0.400000 0.800000 0.100000
0.500000 0.800000 0.100000
0.600000 0.800000 0.100000
0.700000 0.800000 0.100000
0.800000 0.800000 0.100000
0.900000 0.800000 0.100000
1.000000 0.800000 0.100000
1.100000 0.800000 0.100000
1.200000 0.800000 0.100000
1.300000 0.800000 0.100000
1.400000 0.800000 0.100000
0.000000 0.900000 0.100000
0.100000 0.900000 0.100000
0.200000 0.900000 0.100000
0.300000 0.900000 0.100000
0.400000 0.900000 0.100000
0.500000 0.900000 0.100000
0.600000 0.900000 0.100000
0.700000 0.900000 0.100000
0.800000 0.900000 0.100000
0.900000 0.900000 0.100000
1.000000 0.900000 0.100000
1.100000 0.900000 0.100000
1.200000 0.900000 0.100000
1.300000 0.900000 0.100000
1.400000 0.900000 0.100000
0.000000 1.000000 0.100000
0.100000 1.000000 0.100000
0.200000 1.000000 0.100000
0.300000 1.000000 0.100000
0.400000 1.000000 0.100000
0.500000 1.000000 0.100000
0.600000 1.000000 0.100000
0.700000 1.000000 0.100000
0.800000 1.000000 0.100000
0.900000 1.000000 0.100000
1.000000 1.000000 0.100000
1.100000 1.000000 0.100000
1.200000 1.000000 0.100000
1.300000 1.000000 0.100000
1.400000 1.000000 0.100000
0.000000 0.000000 0.200000
0.100000 0.000000 0.200000
0.200000 0.000000 0.200000
0.300000 0.000000 0.200000
0.400000 0.000000 0.200000
0.500000 0.000000 0.200000
0.600000 0.000000 0.200000
0.700000 0.000000 0.200000
0.800000 0.000000 0.200000
0.900000 0.000000 0.200000
1.000000 0.000000 0.200000
1.100000 0.000000 0.200000
1.200000 0.000000 0.200000
1.300000 0.000000 0.200000
1.400000 0.000000 0.200000
0.000000 0.100000 0.200000
0.100000 0.100000 0.200000
0.200000 0.100000 0.200000
0.300000 0.100000 0.200000
0.400000 0.100000 0.200000
0.500000 0.100000 0.200000
0.600000 0.100000 0.200000
0.700000 0.100000 0.200000
0.800000 0.100000 0.200000
0.900000 0.100000 0.200000
1.000000 0.100000 0.200000
1.100000 0.100000 0.200000
1.200000 0.100000 0.200000
1.300000 0.100000 0.200000
1.400000 0.100000 0.200000
0.000000 0.200000 0.200000
0.100000 0.200000 0.200000
0.200000 0.200000 0.200000
0.300000 0.200000 0.200000
0.400000 0.200000 0.200000
[...]
CELL_DATA 2800
SCALARS pressure float 1
LOOKUP_TABLE default
39.1373
36.0175
33.6789
31.9242
30.5345
29.3624
28.3157
27.3354
26.3821
25.4285
24.4563
23.455
22.4216
21.3601
41.4866
36.3766
33.5618
31.7427
30.3846
29.2552
28.2434
27.2884
26.3526
25.4108
24.4464
23.4501
22.4196
21.3593
44.8456
37.3563
33.7238
31.6581
30.2504
29.1338
28.1505
27.2242
26.3127
25.3898
24.4386
23.45
22.4223
21.3607
48.3515
38.6078
34.0916
31.6992
30.1857
29.049
28.0772
27.1724
26.2832
25.3792
24.4416
23.4602
22.4328
21.3655
51.6337
39.9027
34.5575
31.828
30.1858
29.0093
28.0357
27.1443
26.2731
25.3859
24.4601
23.4835
22.4528
21.3747
54.5134
41.1061
35.0386
31.9998
30.2295
29.0063
28.0236
27.1401
26.283
25.4098
24.4935
23.5188
22.4812
21.3878
56.894
42.1373
35.4773
32.1773
30.2939
29.0264
28.0323
27.1535
26.3076
25.4457
24.5367
23.5616
22.5144
21.4028
58.7183
42.946
35.8351
32.3329
30.3597
29.0556
28.0513
27.1754
26.3381
25.485
24.5812
23.6042
22.5467
21.417
59.9515
43.5007
36.0867
32.4471
30.4121
29.0823
28.0706
27.1967
26.3652
25.5183
24.6177
23.6386
22.5724
21.4278
60.573
43.7826
36.2164
32.5074
30.441
29.0981
28.0826
27.2096
26.3813
25.5375
24.6385
23.658
22.5867
21.4339
36.7683
35.338
33.5974
32.0089
30.6413
29.4519
28.3823
27.3829
26.4153
25.4516
24.4725
23.4663
22.4293
21.365
37.4651
35.5275
33.5684
31.9272
30.5642
29.3918
28.3375
27.3487
26.388
25.429
24.4534
23.4509
22.4182
21.3589
38.8628
36.2015
33.8002
31.9611
30.5267
29.3375
28.2873
27.3091
26.3597
25.4104
24.4425
23.4454
22.4157
21.3574
40.5164
37.1147
34.2028
32.0995
30.5471
29.3139
28.2542
27.2812
26.3421
25.4034
24.4437
23.4513
22.4222
21.3604
42.1677
38.0933
34.6855
32.3054
30.6169
29.3248
28.2457
27.2723
26.3408
25.4114
24.459
23.4695
22.4377
21.3678
43.672
39.0237
35.1758
32.5389
30.7168
29.3622
28.2591
27.2818
26.3555
25.4338
24.4871
23.4982
22.4608
21.3791
44.945
39.833
35.6206
32.7652
30.8255
29.4135
28.2868
27.3043
26.3815
25.4658
24.5232
23.5334
22.4883
21.3925
45.9355
40.474
35.9829
32.9576
30.9245
29.4656
28.3192
27.3317
26.4114
25.5002
24.5604
23.5686
22.5153
21.4053
46.6114
40.9165
36.2375
33.0964
30.9991
29.5075
28.3469
27.3558
26.4372
25.529
24.5909
23.597
22.5367
21.4152
46.9539
41.1421
36.3686
33.1691
31.0391
29.5307
28.3629
27.37
26.4522
25.5455
24.6083
23.613
22.5487
21.4207
34.8465
34.1894
33.0488
31.7928
30.5839
29.4628
28.4192
27.4275
26.4603
25.494
24.5106
23.4988
22.4545
21.3815
34.9712
34.212
32.9954
31.7186
30.5153
29.4062
28.3729
27.3876
26.4241
25.4602
24.4796
23.4722
22.4346
21.3704
35.4842
34.5479
33.148
31.7602
30.5044
29.3758
28.3387
27.3564
26.398
25.4398
24.4644
23.4618
22.4282
21.3672
36.2187
35.0704
33.4381
31.892
30.5483
29.3781
28.3257
27.3416
26.3876
25.4357
24.4661
23.4671
22.4343
21.3708
37.0264
35.6706
33.7996
32.0809
30.6344
29.4109
28.3358
27.346
26.395
25.4489
24.4846
23.4874
22.4519
21.3808
37.8055
36.2666
34.1765
32.2932
30.7444
29.4654
28.3648
27.3674
26.4182
25.4774
24.5174
23.5203
22.4789
21.3961
38.4894
36.8002
34.525
32.4993
30.8594
29.5294
28.4047
27.3997
26.4518
25.5157
24.5592
23.5608
22.5114
21.4145
39.0343
37.2311
34.8127
32.6749
30.9623
29.5908
28.4461
27.4347
26.4881
25.5559
24.6021
23.6016
22.5434
21.4322
39.4119
37.5323
35.0167
32.8021
31.0391
29.6386
28.4799
27.4641
26.5183
25.5891
24.6371
23.6343
22.5685
21.4453
39.6049
37.687
35.1224
32.8689
31.0802
29.6648
28.4989
27.4808
26.5357
25.6081
24.6568
23.6525
22.5823
21.4521
33.43
33.0836
32.3404
31.394
30.3852
29.3818
28.4044
27.4488
26.5007
25.5433
24.5618
23.546
22.4926
21.4062
33.3831
33.0397
32.2727
31.3191
30.3153
29.3203
28.3498
27.3981
26.4519
25.496
24.5173
23.5072
22.4634
21.3898
33.5237
33.1725
32.3444
31.3387
30.3039
29.2945
28.3191
27.3677
26.4241
25.4721
24.4981
23.4932
22.4545
21.3859
33.8232
33.4355
32.5179
31.4316
30.3426
29.3031
28.3144
27.3599
26.419
25.4722
24.5034
23.5019
22.4638
21.3927
34.2087
33.771
32.7521
31.5729
30.4187
29.3407
28.3338
27.3744
26.4362
25.4953
24.5317
23.5317
22.4898
21.4095
34.6144
34.1257
33.0082
31.7369
30.5163
29.3983
28.3719
27.4072
26.4723
25.538
24.5798
23.5796
22.53
21.4356
34.9905
34.4568
33.2527
31.8995
30.619
29.4644
28.4201
27.4511
26.5202
25.5935
24.6411
23.6395
22.5788
21.4678
35.3009
34.7317
33.4591
32.0405
30.7116
29.5271
28.4686
27.4966
26.5702
25.6511
24.7044
23.7005
22.6268
21.4988
35.5209
34.9275
33.6076
32.1437
30.7811
29.5759
28.5075
27.534
26.6113
25.6984
24.7555
23.749
22.6637
21.5198
35.6348
35.0291
33.6853
32.1983
30.8185
29.6026
28.5293
27.5551
26.6346
25.7249
24.784
23.7756
22.6834
21.5298
32.405
32.173
31.659
30.9426
30.1155
29.2402
28.3476
27.4463
26.532
25.5939
24.6203
23.6027
22.5391
21.4355
32.3214
32.1157
31.5941
30.8729
30.0471
29.1753
28.2853
27.3847
26.47
25.532
24.5613
23.5511
22.5
21.4139
32.3126
32.1467
31.6142
30.8718
30.0295
29.1481
28.2538
27.3527
26.4396
25.5052
24.5394
23.535
22.4903
21.4105
32.409
32.2622
31.7046
30.9268
30.0552
29.1553
28.2524
27.35
26.4405
25.5121
24.5523
23.5515
22.5069
21.4233
32.5824
32.4374
31.8438
31.0218
30.1141
29.191
28.2775
27.3743
26.4706
25.551
24.5986
23.5994
22.5486
21.4528
32.7931
32.6406
32.007
31.1387
30.1934
29.2465
28.3226
27.4203
26.5255
25.6182
24.6755
23.6764
22.6132
21.5001
33.0048
32.8416
32.17
31.2591
30.2793
29.3109
28.3788
27.4796
26.5964
25.7051
24.7755
23.776
22.6926
21.5619
33.1886
33.015
32.312
31.3661
30.3582
29.3728
28.435
27.5404
26.67
25.7964
24.8818
23.8816
22.7699
21.6226
33.323
33.1415
32.4162
31.4457
30.4183
29.4212
28.4802
27.59
26.7302
25.8706
24.9667
23.9637
22.8281
21.6581
33.3938
33.2082
32.4714
31.4883
30.4509
29.4479
28.5055
27.6179
26.7641
25.9119
25.0133
24.0078
22.8581
21.6727
31.6667
31.4725
31.0838
30.5217
29.8374
29.0768
28.2696
27.4289
26.5556
25.643
24.6816
23.6641
22.5895
21.466
31.587
31.4205
31.0288
30.4609
29.7733
29.0109
28.2014
27.3575
26.4809
25.5667
24.6079
23.5991
22.5405
21.4395
31.5224
31.4055
31.0214
30.4468
29.7505
28.9817
28.1686
27.3238
26.4487
25.5383
24.585
23.583
22.5317
21.438
31.5249
31.4429
31.0609
30.4743
29.7645
28.9862
28.1693
27.3263
26.4573
25.5554
24.6102
23.6123
22.5597
21.4602
31.5909
31.5268
31.1382
30.5346
29.8081
29.019
28.1996
27.3618
26.5044
25.6172
24.684
23.6881
22.6248
21.5102
31.6978
31.6399
31.2389
30.6155
29.8714
29.0723
28.2525
27.4244
26.5854
25.7214
24.8077
23.8136
22.7262
21.5953
31.8198
31.7616
31.3459
30.7031
29.9428
29.1357
28.3184
27.5042
26.6902
25.8597
24.9777
23.989
22.8503
21.7154
31.9333
31.8722
31.4429
30.7835
30.0102
29.1976
28.3848
27.5863
26.8003
26.0092
25.1701
24.1964
22.9623
21.8376
32.0198
31.9555
31.516
30.8448
30.0625
29.2467
28.4384
27.6532
26.89
26.1295
25.3197
24.3474
23.0493
21.8932
32.0665
32.0002
31.5553
30.8779
30.0911
29.274
28.4684
27.6908
26.9401
26.1957
25.3999
24.4256
23.0919
21.9111
31.1421
30.9576
30.636
30.1725
29.5913
28.9226
28.19
27.4064
26.5744
25.6889
24.7412
23.7245
22.6387
21.4944
31.0753
30.9148
30.5913
30.1202
29.5319
28.8567
28.1173
27.3265
26.488
25.5989
24.6533
23.6468
22.5805
21.4638
30.993
30.8809
30.5711
30.0995
29.5063
28.8262
28.0836
27.2918
26.455
25.5702
24.6312
23.6323
22.574
21.4654
30.953
30.8787
30.5818
30.1099
29.5123
28.8289
28.0867
27.3001
26.473
25.6006
24.6727
23.6784
22.6162
21.4997
30.9646
30.9124
30.6219
30.1473
29.5451
28.8602
28.1227
27.3484
26.5405
25.6914
24.783
23.792
22.71
21.5775
31.016
30.9738
30.6835
30.2039
29.5972
28.913
28.1848
27.4305
26.6542
25.8457
24.9754
23.9918
22.8542
21.7191
31.0884
31.0486
30.7548
30.2691
29.6587
28.9775
28.2626
27.5354
26.8039
26.0598
25.2657
24.3173
23.012
21.9348
31.1625
31.1214
30.8226
30.3313
29.7183
29.0415
28.3415
27.6444
26.9646
26.304
25.6371
24.8256
23.1582
22.1485
31.2218
31.1784
30.8754
30.3799
29.7654
29.0928
28.4056
27.7333
27.0949
26.4963
25.9054
25.1282
23.3283
22.2085
31.2548
31.2098
30.9043
30.4065
29.7915
29.1214
28.4414
27.783
27.1671
26.6001
26.0447
25.2789
23.3836
22.2205
30.7832
30.599
30.3131
29.91
29.3985
28.7969
28.1225
27.3861
26.5898
25.7286
24.7936
23.7776
22.6815
21.5177
30.7282
30.5641
30.2763
29.8644
29.3429
28.7311
28.0462
27.2991
26.4934
25.6266
24.6932
23.6888
22.6154
21.4841
30.6427
30.5236
30.2509
29.8408
29.316
28.7001
28.012
27.2639
26.4603
25.5988
24.6731
23.677
22.6117
21.4889
30.5844
30.5021
30.2463
29.8415
29.3173
28.7021
28.0178
27.2782
26.488
25.643
24.7318
23.7409
22.6677
21.5346
30.569
30.5093
30.2653
29.8652
29.3437
28.7334
28.0599
27.3391
26.5764
25.7647
24.8826
23.8965
22.7879
21.6392
30.5911
30.542
30.304
29.907
29.3892
28.7875
28.1315
27.441
26.7246
25.9751
25.1588
24.1948
22.9612
21.8366
30.6365
30.59
30.3538
29.9583
29.4449
28.8545
28.2216
27.5722
26.924
26.2827
25.6262
24.817
23.1387
22.13
30.6887
30.6408
30.404
30.0091
29.5002
28.9219
28.3137
27.7099
27.1434
26.6574
26.3487
26.4131
0.0
0.0
30.7329
30.6825
30.4443
30.0497
29.5446
28.9764
28.3887
27.8222
27.32
26.9417
26.8019
27.0663
0.0
0.0
30.7581
30.706
30.4668
30.0723
29.5693
29.0069
28.4308
27.8848
27.417
27.0928
27.0318
27.3942
0.0
0.0
30.5591
30.3731
30.1055
29.7369
29.268
28.7098
28.0749
27.3717
26.6014
25.7582
24.8327
23.8173
22.713
21.534
30.5125
30.3436
30.0738
29.6956
29.2149
28.644
27.9959
27.2795
26.4975
25.6474
24.7231
23.7203
22.6412
21.4984
30.4282
30.3012
30.0466
29.671
29.1876
28.6128
27.9615
27.2442
26.4647
25.6205
24.7048
23.7107
22.6396
21.5051
30.3626
30.2711
30.0345
29.6667
29.1866
28.6149
27.9697
27.2633
26.5003
25.676
24.7775
23.7884
22.7056
21.5573
30.3346
30.265
30.0426
29.6831
29.2097
28.647
28.0168
27.3343
26.6054
25.8223
24.9598
23.9754
22.845
21.6744
30.342
30.2827
30.0689
29.7167
29.2518
28.7028
28.0962
27.4522
26.7812
26.0768
25.2984
24.3401
23.044
21.8889
30.3735
30.3165
30.1068
29.7603
29.3047
28.7727
28.1964
27.6044
27.0198
26.4547
25.8825
25.1111
23.3011
22.1827
30.4142
30.3555
30.1472
29.8048
29.3581
28.8435
28.2994
27.7651
27.2849
26.9206
26.7886
27.055
0.0
0.0
30.4504
30.3888
30.1805
29.841
29.4013
28.901
28.3834
27.8962
27.4984
27.275
27.3675
28.014
0.0
0.0
30.4716
30.408
30.1995
29.8613
29.4255
28.9332
28.4305
27.9693
27.6154
27.4627
27.6601
28.4424
0.0
0.0
30.4514
30.2642
30.0043
29.6514
29.2027
28.6657
28.0507
27.3645
26.6078
25.7743
24.8538
23.8386
22.7298
21.5423
30.409
30.2373
29.9751
29.6121
29.1507
28.5999
27.9702
27.2695
26.5
25.6586
24.7393
23.7371
22.6549
21.5057
30.3262
30.1947
29.9475
29.5873
29.1234
28.5686
27.9358
27.2342
26.4673
25.6324
24.7219
23.7288
22.6543
21.5133
30.2583
30.1614
29.9325
29.5811
29.1215
28.5709
27.9453
27.256
26.5073
25.6941
24.8022
23.8138
22.7254
21.5678
30.2253
30.1499
29.9359
29.5944
29.1434
28.6037
27.9952
27.3326
26.6216
25.8538
25.0013
24.0171
22.8739
21.6886
30.2267
30.1613
29.957
29.6245
29.1842
28.6608
28.0791
27.4593
26.8125
26.1318
25.372
24.4144
23.0842
21.905
30.2523
30.189
29.9898
29.6648
29.2361
28.7325
28.1849
27.623
27.0722
26.5462
26.0137
25.2561
23.3523
22.1912
30.2882
30.2228
30.0258
29.7066
29.2888
28.8054
28.294
27.7962
27.3616
27.0585
27.009
27.3743
0.0
0.0
30.321
30.2525
30.0561
29.7408
29.3317
28.8647
28.3829
27.9377
27.5949
27.4491
27.65
28.4321
0.0
0.0
30.3404
30.2698
30.0734
29.7602
29.3559
28.898
28.4328
28.0166
27.7227
27.6562
27.9745
28.9082
0.0
0.0
30.4516
30.2644
30.0045
29.6516
29.2028
28.6659
28.0509
27.3648
26.6081
25.7746
24.8542
23.8389
22.7302
21.5427
30.4092
30.2375
29.9752
29.6123
29.1509
28.6
27.9704
27.2697
26.5002
25.6589
24.7396
23.7374
22.6552
21.506
30.3263
30.1949
29.9476
29.5875
29.1236
28.5688
27.936
27.2344
26.4676
25.6327
24.7222
23.7291
22.6547
21.5136
30.2585
30.1615
29.9326
29.5812
29.1217
28.5711
27.9455
27.2562
26.5075
25.6943
24.8025
23.8141
22.7257
21.5681
30.2255
30.1501
29.9361
29.5946
29.1435
28.6039
27.9954
27.3329
26.6218
25.8541
25.0016
24.0174
22.8741
21.6888
30.2269
30.1615
29.9571
29.6247
29.1843
28.661
28.0793
27.4595
26.8128
26.1322
25.3724
24.4148
23.0843
21.905
30.2525
30.1892
29.9899
29.6649
29.2362
28.7327
28.1852
27.6232
27.0725
26.5466
26.0143
25.2568
23.352
22.1906
30.2884
30.223
30.026
29.7067
29.289
28.8056
28.2942
27.7965
27.362
27.059
27.0099
27.3766
0.0
0.0
30.3212
30.2527
30.0563
29.741
29.3319
28.8649
28.3832
27.938
27.5952
27.4496
27.6505
28.4327
0.0
0.0
30.3406
30.27
30.0736
29.7604
29.3561
28.8982
28.4331
28.0169
27.7232
27.6567
27.9749
28.9079
0.0
0.0
30.5595
30.3736
30.1059
29.7374
29.2685
28.7104
28.0756
27.3724
26.6022
25.7591
24.8337
23.8183
22.7141
21.535
30.5129
30.344
30.0742
29.696
29.2153
28.6446
27.9965
27.2801
26.4982
25.6482
24.724
23.7212
22.6421
21.4993
30.4286
30.3017
30.047
29.6714
29.1881
28.6133
27.9621
27.2448
26.4654
25.6213
24.7056
23.7116
22.6405
21.5061
30.3631
30.2716
30.035
29.6671
29.187
28.6154
27.9703
27.264
26.501
25.6768
24.7784
23.7893
22.7065
21.5582
30.3351
30.2655
30.043
29.6836
29.2102
28.6475
28.0174
27.335
26.6061
25.8232
24.9608
23.9765
22.8459
21.6752
30.3426
30.2832
30.0694
29.7172
29.2523
28.7034
28.0968
27.4529
26.7821
26.0779
25.2996
24.3413
23.0447
21.8893
30.374
30.317
30.1073
29.7608
29.3052
28.7733
28.1971
27.6052
27.0208
26.456
25.8842
25.1132
23.3009
22.1819
30.4148
30.356
30.1477
29.8053
29.3586
28.8441
28.3001
27.7659
27.286
26.9221
26.7911
27.0609
0.0
0.0
30.451
30.3893
30.1811
29.8415
29.4019
28.9016
28.3841
27.8971
27.4995
27.2763
27.369
28.0151
0.0
0.0
30.4722
30.4085
30.2
29.8619
29.4261
28.9339
28.4313
27.9703
27.6166
27.4641
27.6612
28.4413
0.0
0.0
30.7839
30.5997
30.3138
29.9107
29.3993
28.7978
28.1236
27.3872
26.5911
25.73
24.7951
23.7793
22.6832
21.5195
30.729
30.5648
30.277
29.8651
29.3437
28.732
28.0472
27.3002
26.4946
25.628
24.6947
23.6904
22.617
21.4857
30.6435
30.5243
30.2516
29.8415
29.3168
28.7009
28.013
27.265
26.4614
25.6001
24.6744
23.6785
22.6132
21.4905
30.5852
30.5029
30.247
29.8422
29.3181
28.7029
28.0188
27.2793
26.4892
25.6444
24.7333
23.7424
22.6692
21.5362
30.5698
30.5101
30.2661
29.866
29.3445
28.7343
28.0609
27.3402
26.5776
25.7662
24.8842
23.8982
22.7896
21.6408
30.592
30.5428
30.3048
29.9078
29.39
28.7884
28.1325
27.4422
26.726
25.9767
25.1607
24.1969
22.9628
21.8381
30.6374
30.5908
30.3546
29.9591
29.4457
28.8554
28.2226
27.5734
26.9254
26.2846
25.6287
24.8201
23.1398
22.1309
30.6896
30.6416
30.4048
30.0099
29.5011
28.9229
28.3149
27.7112
27.145
26.6595
26.3519
26.4197
0.0
0.0
30.7338
30.6834
30.4451
30.0506
29.5455
28.9774
28.3899
27.8236
27.3217
26.9438
26.804
27.067
0.0
0.0
30.7591
30.7069
30.4676
30.0732
29.5703
29.008
28.432
27.8864
27.4189
27.095
27.0336
27.3925
0.0
0.0
31.1431
30.9585
30.6369
30.1735
29.5924
28.9238
28.1913
27.4079
26.5761
25.6908
24.7433
23.7267
22.641
21.4968
31.0763
30.9158
30.5922
30.1212
29.533
28.8579
28.1186
27.328
26.4896
25.6006
24.6552
23.6488
22.5826
21.466
30.994
30.8819
30.5721
30.1005
29.5073
28.8273
28.0848
27.2932
26.4565
25.572
24.6331
23.6343
22.5761
21.4675
30.954
30.8797
30.5827
30.1109
29.5133
28.83
28.088
27.3016
26.4746
25.6023
24.6746
23.6805
22.6183
21.5019
30.9657
30.9135
30.6229
30.1484
29.5462
28.8614
28.124
27.3498
26.5422
25.6933
24.7852
23.7944
22.7125
21.58
31.0171
30.9749
30.6846
30.205
29.5983
28.9143
28.1862
27.432
26.656
25.8478
24.9779
23.9947
22.8573
21.7223
31.0896
31.0497
30.7558
30.2702
29.6598
28.9787
28.264
27.537
26.8058
26.0622
25.2687
24.3212
23.0165
21.9398
31.1637
31.1225
30.8237
30.3325
29.7195
29.0428
28.343
27.6462
26.9667
26.3067
25.6407
24.8311
23.1674
22.1583
31.2231
31.1796
30.8765
30.381
29.7666
29.0941
28.4071
27.7352
27.0972
26.4991
25.9089
25.1327
23.3363
22.2182
31.2561
31.211
30.9054
30.4077
29.7927
29.1228
28.4431
27.7851
27.1696
26.6032
26.0483
25.2832
23.3911
22.2297
31.6679
31.4736
31.0848
30.5229
29.8387
29.0783
28.2712
27.4307
26.5577
25.6453
24.6841
23.6667
22.5922
21.4689
31.5882
31.4217
31.0299
30.462
29.7746
29.0123
28.203
27.3593
26.4828
25.5688
24.6102
23.6016
22.5431
21.4421
31.5237
31.4067
31.0226
30.4479
29.7518
28.983
28.1702
27.3255
26.4506
25.5403
24.5873
23.5854
22.5342
21.4406
31.5262
31.4441
31.062
30.4755
29.7658
28.9876
28.1709
27.328
26.4592
25.5575
24.6126
23.6148
22.5623
21.463
31.5922
31.5281
31.1395
30.5359
29.8094
29.0204
28.2011
27.3635
26.5064
25.6194
24.6865
23.691
22.6279
21.5134
31.6992
31.6412
31.2402
30.6168
29.8727
29.0737
28.2541
27.4263
26.5875
25.7239
24.8105
23.8169
22.7299
21.5993
31.8212
31.7629
31.3472
30.7044
29.9442
29.1372
28.3201
27.5061
26.6925
25.8624
24.981
23.993
22.8551
21.7208
31.9348
31.8735
31.4442
30.7849
30.0116
29.1992
28.3865
27.5884
26.8027
26.0122
25.1739
24.2013
22.9689
21.8453
32.0213
31.9568
31.5173
30.8461
30.0639
29.2483
28.4402
27.6554
26.8927
26.1328
25.3237
24.3526
23.0562
21.9016
32.068
32.0016
31.5566
30.8793
30.0926
29.2756
28.4703
27.6931
26.943
26.1993
25.4043
24.4311
23.0993
21.92
32.4063
32.1742
31.6602
30.9439
30.117
29.2418
28.3494
27.4484
26.5343
25.5964
24.623
23.6057
22.5422
21.4387
32.3227
32.117
31.5954
30.8743
30.0486
29.1769
28.287
27.3867
26.4721
25.5344
24.5639
23.5538
22.5029
21.4169
32.3141
32.1481
31.6155
30.8732
30.0309
29.1496
28.2556
27.3546
26.4418
25.5075
24.5419
23.5377
22.4932
21.4134
32.4105
32.2636
31.706
30.9282
30.0567
29.1569
28.2542
27.3519
26.4427
25.5145
24.5549
23.5544
22.5099
21.4264
32.5839
32.4389
31.8452
31.0232
30.1156
29.1926
28.2793
27.3762
26.4729
25.5535
24.6014
23.6025
22.552
21.4563
32.7946
32.6421
32.0084
31.1402
30.1949
29.2481
28.3245
27.4224
26.5278
25.6208
24.6786
23.6799
22.6171
21.5043
33.0064
32.8431
32.1715
31.2606
30.2808
29.3126
28.3807
27.4817
26.5989
25.7081
24.779
23.7801
22.6972
21.5669
33.1902
33.0165
32.3135
31.3676
30.3598
29.3745
28.437
27.5427
26.6727
25.7997
24.8856
23.8863
22.7755
21.6288
33.3246
33.143
32.4177
31.4473
30.42
29.4231
28.4823
27.5924
26.7331
25.8741
24.9709
23.9688
22.8343
21.6651
33.3954
33.2097
32.4729
31.4899
30.4526
29.4498
28.5076
27.6204
26.7672
25.9157
25.0179
24.0133
22.8647
21.6803
33.4313
33.0849
32.3417
31.3955
30.3868
29.3836
28.4064
27.451
26.5032
25.546
24.5647
23.5491
22.4959
21.4096
33.3846
33.0411
32.274
31.3205
30.3168
29.3221
28.3517
27.4002
26.4542
25.4985
24.52
23.5102
22.4665
21.393
33.5253
33.174
32.3459
31.3402
30.3055
29.2962
28.3209
27.3697
26.4264
25.4746
24.5008
23.4961
22.4576
21.3891
33.8248
33.4371
32.5194
31.4331
30.3442
29.3048
28.3162
27.362
26.4213
25.4747
24.5061
23.5049
22.467
21.396
34.2104
33.7726
32.7537
31.5744
30.4203
29.3425
28.3357
27.3766
26.4386
25.4979
24.5346
23.5349
22.4933
21.4132
34.6161
34.1273
33.0097
31.7384
30.5179
29.4001
28.3739
27.4094
26.4748
25.5408
24.583
23.5832
22.534
21.4398
34.9921
34.4584
33.2543
31.9011
30.6207
29.4662
28.4222
27.4534
26.5229
25.5966
24.6447
23.6436
22.5833
21.4726
35.3026
34.7333
33.4607
32.0421
30.7133
29.529
28.4707
27.4991
26.5731
25.6545
24.7083
23.7051
22.632
21.5044
35.5225
34.9291
33.6092
32.1454
30.7829
29.5778
28.5097
27.5366
26.6144
25.702
24.7598
23.754
22.6694
21.526
35.6365
35.0307
33.6869
32.2
30.8203
29.6046
28.5316
27.5578
26.6378
25.7288
24.7886
23.781
22.6895
21.5365
34.8479
34.1908
33.0503
31.7943
30.5856
29.4646
28.4213
27.4297
26.4627
25.4967
24.5135
23.502
22.4579
21.385
34.9728
34.2135
32.9969
31.7202
30.517
29.408
28.3748
27.3898
26.4265
25.4628
24.4824
23.4752
22.4378
21.3737
35.4859
34.5495
33.1496
31.7618
30.506
29.3775
28.3407
27.3585
26.4004
25.4423
24.4672
23.4648
22.4314
21.3705
36.2204
35.072
33.4397
31.8936
30.55
29.3799
28.3277
27.3437
26.39
25.4383
24.469
23.4702
22.4376
21.3743
37.028
35.6722
33.8012
32.0825
30.636
29.4127
28.3378
27.3482
26.3974
25.4517
24.4876
23.4908
22.4555
21.3846
37.8072
36.2682
34.1781
32.2948
30.7461
29.4672
28.3668
27.3697
26.4207
25.4803
24.5207
23.524
22.4829
21.4003
38.491
36.8018
34.5266
32.5009
30.8611
29.5313
28.4068
27.4021
26.4546
25.5189
24.5629
23.5649
22.5159
21.4193
39.036
37.2327
34.8143
32.6765
30.964
29.5927
28.4482
27.4372
26.491
25.5594
24.6061
23.6061
22.5484
21.4376
39.4136
37.5339
35.0183
32.8038
31.0409
29.6405
28.4821
27.4667
26.5215
25.5928
24.6414
23.6392
22.574
21.4512
39.6066
37.6886
35.124
32.8705
31.082
29.6668
28.5012
27.4836
26.539
25.612
24.6615
23.6578
22.5882
21.4584
36.7698
35.3395
33.599
32.0105
30.643
29.4538
28.3844
27.3851
26.4177
25.4543
24.4754
23.4695
22.4327
21.3685
37.4667
35.529
33.57
31.9288
30.5659
29.3936
28.3394
27.3508
26.3904
25.4316
24.4562
23.454
22.4215
21.3622
38.8644
36.2031