# vtk DataFile Version 2.0
I need something to put here
ASCII

DATASET STRUCTURED_GRID
DIMENSIONS 41 21 21
POINTS 18081 float
0.000000 0.000000 0.000000
0.100000 0.000000 0.000000
0.200000 0.000000 0.000000
0.300000 0.000000 0.000000
0.400000 0.000000 0.000000
0.500000 0.000000 0.000000
0.600000 0.000000 0.000000
0.700000 0.000000 0.000000
0.800000 0.000000 0.000000
0.900000 0.000000 0.000000
1.000000 0.000000 0.000000
1.100000 0.000000 0.000000
1.200000 0.000000 0.000000
1.300000 0.000000 0.000000
1.400000 0.000000 0.000000
1.500000 0.000000 0.000000
1.600000 0.000000 0.000000
1.700000 0.000000 0.000000
1.800000 0.000000 0.000000
1.900000 0.000000 0.000000
2.000000 0.000000 0.000000
2.100000 0.000000 0.000000
2.200000 0.000000 0.000000
2.300000 0.000000 0.000000
2.400000 0.000000 0.000000
2.500000 0.000000 0.000000
2.600000 0.000000 0.000000
2.700000 0.000000 0.000000
2.800000 0.000000 0.000000
2.900000 0.000000 0.000000
3.000000 0.000000 0.000000
3.100000 0.000000 0.000000
3.200000 0.000000 0.000000
3.300000 0.000000 0.000000
3.400000 0.000000 0.000000
3.500000 0.000000 0.000000
3.600000 0.000000 0.000000
3.700000 0.000000 0.000000
3.800000 0.000000 0.000000
3.900000 0.000000 0.000000
4.000000 0.000000 0.000000
0.000000 0.100000 0.000000
0.100000 0.100000 0.000000
0.200000 0.100000 0.000000
0.300000 0.100000 0.000000
0.400000 0.100000 0.000000
0.500000 0.100000 0.000000
0.600000 0.100000 0.000000
0.700000 0.100000 0.000000
0.800000 0.100000 0.000000
0.900000 0.100000 0.000000
1.000000 0.100000 0.000000
1.100000 0.100000 0.000000
1.200000 0.100000 0.000000
1.300000 0.100000 0.000000
1.400000 0.100000 0.000000
1.500000 0.100000 0.000000
1.600000 0.100000 0.000000
1.700000 0.100000 0.000000
1.800000 0.100000 0.000000
1.900000 0.100000 0.000000
2.000000 0.100000 0.000000
2.100000 0.100000 0.000000
2.200000 0.100000 0.000000
2.300000 0.100000 0.000000
2.400000 0.100000 0.000000
2.500000 0.100000 0.000000
2.600000 0.100000 0.000000
2.700000 0.100000 0.000000
2.800000 0.100000 0.000000
2.900000 0.100000 0.000000
3.000000 0.100000 0.000000
3.100000 0.100000 0.000000
3.200000 0.100000 0.000000
3.300000 0.100000 0.000000
3.400000 0.100000 0.000000
3.500000 0.100000 0.000000
3.600000 0.100000 0.000000
3.700000 0.100000 0.000000
3.800000 0.100000 0.000000
3.900000 0.100000 0.000000
4.000000 0.100000 0.000000
0.000000 0.200000 0.000000
0.100000 0.200000 0.000000
0.200000 0.200000 0.000000
0.300000 0.200000 0.000000
0.400000 0.200000 0.000000
0.500000 0.200000 0.000000
0.600000 0.200000 0.000000
0.700000 0.200000 0.000000
0.800000 0.200000 0.000000
0.900000 0.200000 0.000000
1.000000 0.200000 0.000000
1.100000 0.200000 0.000000
1.200000 0.200000 0.000000
1.300000 0.200000 0.000000
1.400000 0.200000 0.000000
1.500000 0.200000 0.000000
1.600000 0.200000 0.000000
1.700000 0.200000 0.000000
1.800000 0.200000 0.000000
1.900000 0.200000 0.000000
2.000000 0.200000 0.000000
2.100000 0.200000 0.000000
2.200000 0.200000 0.000000
2.300000 0.200000 0.000000
2.400000 0.200000 0.000000
2.500000 0.200000 0.000000
2.600000 0.200000 0.000000
2.700000 0.200000 0.000000
2.800000 0.200000 0.000000
2.900000 0.200000 0.000000
3.000000 0.200000 0.000000
3.100000 0.200000 0.000000
3.200000 0.200000 0.000000
3.300000 0.200000 0.000000
3.400000 0.200000 0.000000
3.500000 0.200000 0.000000
3.600000 0.200000 0.000000
3.700000 0.200000 0.000000
3.800000 0.200000 0.000000
3.900000 0.200000 0.000000
4.000000 0.200000 0.000000
0.000000 0.300000 0.000000
0.100000 0.300000 0.000000
0.200000 0.300000 0.000000
0.300000 0.300000 0.000000
0.400000 0.300000 0.000000
0.500000 0.300000 0.000000
0.600000 0.300000 0.000000
0.700000 0.300000 0.000000
0.800000 0.300000 0.000000
0.900000 0.300000 0.000000
1.000000 0.300000 0.000000
1.100000 0.300000 0.000000
1.200000 0.300000 0.000000
1.300000 0.300000 0.000000
1.400000 0.300000 0.000000
1.500000 0.300000 0.000000
1.600000 0.300000 0.000000
1.700000 0.300000 0.000000
1.800000 0.300000 0.000000
1.900000 0.300000 0.000000
2.000000 0.300000 0.000000
2.100000 0.300000 0.000000
2.200000 0.300000 0.000000
2.300000 0.300000 0.000000
2.400000 0.300000 0.000000
2.500000 0.300000 0.000000
2.600000 0.300000 0.000000
2.700000 0.300000 0.000000
2.800000 0.300000 0.000000
2.900000 0.300000 0.000000
3.000000 0.300000 0.000000
3.100000 0.300000 0.000000
3.200000 0.300000 0.000000
3.300000 0.300000 0.000000
3.400000 0.300000 0.000000
3.500000 0.300000 0.000000
3.600000 0.300000 0.000000
3.700000 0.300000 0.000000
3.800000 0.300000 0.000000
3.900000 0.300000 0.000000
4.000000 0.300000 0.000000
0.000000 0.400000 0.000000
0.100000 0.400000 0.000000
0.200000 0.400000 0.000000
0.300000 0.400000 0.000000
0.400000 0.400000 0.000000
0.500000 0.400000 0.000000
0.600000 0.400000 0.000000
0.700000 0.400000 0.000000
0.800000 0.400000 0.000000
0.900000 0.400000 0.000000
1.000000 0.400000 0.000000
1.100000 0.400000 0.000000
1.200000 0.400000 0.000000
1.300000 0.400000 0.000000
1.400000 0.400000 0.000000
1.500000 0.400000 0.000000
1.600000 0.400000 0.000000
1.700000 0.400000 0.000000
1.800000 0.400000 0.000000
1.900000 0.400000 0.000000
2.000000 0.400000 0.000000
2.100000 0.400000 0.000000
2.200000 0.400000 0.000000
2.300000 0.400000 0.000000
2.400000 0.400000 0.000000
2.500000 0.400000 0.000000
2.600000 0.400000 0.000000
2.700000 0.400000 0.000000
2.800000 0.400000 0.000000
2.900000 0.400000 0.000000
3.000000 0.400000 0.000000
3.100000 0.400000 0.000000
3.200000 0.400000 0.000000
3.300000 0.400000 0.000000
3.400000 0.400000 0.000000
3.500000 0.400000 0.000000
3.600000 0.400000 0.000000
3.700000 0.400000 0.000000
3.800000 0.400000 0.000000
3.900000 0.400000 0.000000
4.000000 0.400000 0.000000
0.000000 0.500000 0.000000
0.100000 0.500000 0.000000
0.200000 0.500000 0.000000
0.300000 0.500000 0.000000
0.400000 0.500000 0.000000
0.500000 0.500000 0.000000
0.600000 0.500000 0.000000
0.700000 0.500000 0.000000
0.800000 0.500000 0.000000
0.900000 0.500000 0.000000
1.000000 0.500000 0.000000
1.100000 0.500000 0.000000
1.200000 0.500000 0.000000
1.300000 0.500000 0.000000
1.400000 0.500000 0.000000
1.500000 0.500000 0.000000
1.600000 0.500000 0.000000
1.700000 0.500000 0.000000
1.800000 0.500000 0.000000
1.900000 0.500000 0.000000
2.000000 0.500000 0.000000
2.100000 0.500000 0.000000
2.200000 0.500000 0.000000
2.300000 0.500000 0.000000
2.400000 0.500000 0.000000
2.500000 0.500000 0.000000
2.600000 0.500000 0.000000
2.700000 0.500000 0.000000
2.800000 0.500000 0.000000
2.900000 0.500000 0.000000
3.000000 0.500000 0.000000
3.100000 0.500000 0.000000
3.200000 0.500000 0.000000
3.300000 0.500000 0.000000
3.400000 0.500000 0.000000
3.500000 0.500000 0.000000
3.600000 0.500000 0.000000
3.700000 0.500000 0.000000
3.800000 0.500000 0.000000
3.900000 0.500000 0.000000
4.000000 0.500000 0.000000
0.000000 0.600000 0.000000
0.100000 0.600000 0.000000
0.200000 0.600000 0.000000
0.300000 0.600000 0.000000
0.400000 0.600000 0.000000
0.500000 0.600000 0.000000
0.600000 0.600000 0.000000
0.700000 0.600000 0.000000
0.800000 0.600000 0.000000
0.900000 0.600000 0.000000
1.000000 0.600000 0.000000
1.100000 0.600000 0.000000
1.200000 0.600000 0.000000
1.300000 0.600000 0.000000
1.400000 0.600000 0.000000
1.500000 0.600000 0.000000
1.600000 0.600000 0.000000
1.700000 0.600000 0.000000
1.800000 0.600000 0.000000
1.900000 0.600000 0.000000
2.000000 0.600000 0.000000
2.100000 0.600000 0.000000
2.200000 0.600000 0.000000
2.300000 0.600000 0.000000
2.400000 0.600000 0.000000
2.500000 0.600000 0.000000
2.600000 0.600000 0.000000
2.700000 0.600000 0.000000
2.800000 0.600000 0.000000
2.900000 0.600000 0.000000
3.000000 0.600000 0.000000
3.100000 0.600000 0.000000
3.200000 0.600000 0.000000
3.300000 0.600000 0.000000
3.400000 0.600000 0.000000
3.500000 0.600000 0.000000
3.600000 0.600000 0.000000
3.700000 0.600000 0.000000
3.800000 0.600000 0.000000
3.900000 0.600000 0.000000
4.000000 0.600000 0.000000
0.000000 0.700000 0.000000
0.100000 0.700000 0.000000
0.200000 0.700000 0.000000
0.300000 0.700000 0.000000
0.400000 0.700000 0.000000
0.500000 0.700000 0.000000
0.600000 0.700000 0.000000
0.700000 0.700000 0.000000
0.800000 0.700000 0.000000
0.900000 0.700000 0.000000
1.000000 0.700000 0.000000
1.100000 0.700000 0.000000
1.200000 0.700000 0.000000
1.300000 0.700000 0.000000
1.400000 0.700000 0.000000
1.500000 0.700000 0.000000
1.600000 0.700000 0.000000
1.700000 0.700000 0.000000
1.800000 0.700000 0.000000
1.900000 0.700000 0.000000
2.000000 0.700000 0.000000
2.100000 0.700000 0.000000
2.200000 0.700000 0.000000
2.300000 0.700000 0.000000
2.400000 0.700000 0.000000
2.500000 0.700000 0.000000
2.600000 0.700000 0.000000
2.700000 0.700000 0.000000
2.800000 0.700000 0.000000
2.900000 0.700000 0.000000
3.000000 0.700000 0.000000
3.100000 0.700000 0.000000
3.200000 0.700000 0.000000
3.300000 0.700000 0.000000
3.400000 0.700000 0.000000
3.500000 0.700000 0.000000
3.600000 0.700000 0.000000
3.700000 0.700000 0.000000
3.800000 0.700000 0.000000
3.900000 0.700000 0.000000
4.000000 0.700000 0.000000
0.000000 0.800000 0.000000
0.100000 0.800000 0.000000
0.200000 0.800000 0.000000
0.300000 0.800000 0.000000
0.400000 0.800000 0.000000
0.500000 0.800000 0.000000
0.600000 0.800000 0.000000
0.700000 0.800000 0.000000
0.800000 0.800000 0.000000
0.900000 0.800000 0.000000
1.000000 0.800000 0.000000
1.100000 0.800000 0.000000
1.200000 0.800000 0.000000
1.300000 0.800000 0.000000
1.400000 0.800000 0.000000
1.500000 0.800000 0.000000
1.600000 0.800000 0.000000
1.700000 0.800000 0.000000
1.800000 0.800000 0.000000
1.900000 0.800000 0.000000
2.000000 0.800000 0.000000
2.100000 0.800000 0.000000
2.200000 0.800000 0.000000
2.300000 0.800000 0.000000
2.400000 0.800000 0.000000
2.500000 0.800000 0.000000
2.600000 0.800000 0.000000
2.700000 0.800000 0.000000
2.800000 0.800000 0.000000
2.900000 0.800000 0.000000
3.000000 0.800000 0.000000
3.100000 0.800000 0.000000
3.200000 0.800000 0.000000
3.300000 0.800000 0.000000
3.400000 0.800000 0.000000
3.500000 0.800000 0.000000
3.600000 0.800000 0.000000
[...]
CELL_DATA 16000
SCALARS pressure float 1
LOOKUP_TABLE default
34.6239
34.447
34.11
33.6464
33.0822
32.4334
31.708
30.907
30.0269
29.0614
28.0048
26.8547
25.6152
24.2989
22.9274
21.5293
20.1364
18.779
17.4812
16.2589
15.119
14.0607
13.0776
12.1597
11.296
10.4755
9.68829
8.92602
8.18192
7.45074
6.72852
6.01238
5.30026
4.59071
3.88278
3.17582
2.46944
1.76341
1.05767
0.352289
34.6795
34.4772
34.1262
33.655
33.0865
32.4356
31.7094
30.9083
30.0287
29.0639
28.008
26.8582
25.6184
24.3012
22.9283
21.5285
20.1341
18.7756
17.4774
16.2553
15.1161
14.0587
13.0764
12.1592
11.2961
10.4759
9.68892
8.92673
8.18262
7.45138
6.72908
6.01285
5.30064
4.59101
3.88301
3.176
2.46957
1.7635
1.0577
0.352242
34.7998
34.5607
34.1856
33.699
33.1217
32.4666
31.7397
30.9406
30.0642
29.1027
28.0485
26.8973
25.6521
24.325
22.9388
21.5243
20.1161
18.747
17.4423
16.2181
15.0802
14.0265
13.0492
12.1374
11.2792
10.4633
9.67986
8.9204
8.17833
7.44857
6.7273
6.01177
5.30001
4.59069
3.88286
3.17595
2.46956
1.76348
1.05765
0.352144
34.9628
34.6815
34.2764
33.7702
33.1816
32.522
31.7958
31.0011
30.1311
29.1757
28.1244
26.9704
25.7145
24.3686
22.9572
21.515
20.0811
18.6922
17.3756
16.1475
15.0123
13.9657
12.9977
12.0958
11.2469
10.4391
9.66216
8.90785
8.16966
7.44273
6.72347
6.00934
5.29852
4.58981
3.88238
3.17569
2.46943
1.7634
1.05757
0.352059
35.1475
34.8241
34.3876
33.8604
33.2601
32.5967
31.8732
31.086
30.2258
29.2794
28.2326
27.0745
25.8031
24.4299
22.9819
21.4995
20.0286
18.6116
17.2786
16.0457
14.915
13.879
12.9247
12.037
11.2013
10.4049
9.63723
8.89015
8.1574
7.43444
6.718
6.00582
5.29634
4.5885
3.88163
3.17529
2.46922
1.76329
1.05749
0.352007
35.3347
34.973
34.5068
33.9598
33.3489
32.6834
31.9648
31.1877
30.3403
29.4058
28.3652
27.2027
25.9124
24.5049
23.0111
21.4781
19.9612
18.5097
17.1574
15.9197
14.7956
13.7735
12.8363
11.9662
11.1467
10.364
9.60755
8.8691
8.14282
7.42458
6.71149
6.00163
5.29371
4.58691
3.88071
3.17478
2.46896
1.76316
1.05743
0.351989
35.5071
35.1134
34.6217
34.0576
33.4383
32.7723
32.0603
31.2951
30.4625
29.5417
28.5088
27.3422
26.0317
24.5868
23.042
21.453
19.8854
18.3966
17.0242
15.7825
14.6667
13.6604
12.7424
11.8914
11.0893
10.3213
9.57657
8.84719
8.12768
7.41435
6.70474
5.99728
5.29099
4.58526
3.87975
3.17425
2.46869
1.76304
1.05739
0.351999
35.6504
35.2319
34.7202
34.1429
33.5175
32.8524
32.1475
31.3943
30.5764
29.6694
28.6447
27.4752
26.146
24.6652
23.0711
21.4277
19.8113
18.2873
16.8966
15.6522
14.5454
13.5549
12.6552
11.8225
11.0366
10.2822
9.54834
8.82729
8.11396
7.40509
6.69863
5.99334
5.28852
4.58377
3.87888
3.17378
2.46845
1.76294
1.05737
0.352025
35.7527
35.3174
34.7922
34.206
33.5769
32.9131
32.2142
31.4708
30.6649
29.7693
28.7517
27.5806
26.2371
24.7279
23.0941
21.4069
19.7514
18.1998
16.7952
15.5496
14.4505
13.4728
12.5878
11.7694
10.9962
10.2524
9.52685
8.81217
8.10355
7.39808
6.69401
5.99038
5.28667
4.58265
3.87823
3.17342
2.46827
1.76287
1.05736
0.352052
35.806
35.3623
34.8301
34.2395
33.6087
32.9458
32.2504
31.5126
30.7133
29.8244
28.811
27.6392
26.2879
24.7629
23.1069
21.3951
19.7178
18.1508
16.7389
15.4928
14.3983
13.4279
12.5511
11.7405
10.9743
10.2363
9.51527
8.80404
8.09797
7.39432
6.69154
5.98879
5.28568
4.58205
3.87789
3.17323
2.46818
1.76283
1.05736
0.352069
35.8061
35.3623
34.8302
34.2395
33.6087
32.9459
32.2504
31.5126
30.7134
29.8244
28.811
27.6392
26.2879
24.7629
23.1069
21.3951
19.7178
18.1509
16.739
15.493
14.3984
13.428
12.5512
11.7407
10.9744
10.2364
9.51536
8.80411
8.09803
7.39437
6.69158
5.98882
5.2857
4.58207
3.8779
3.17324
2.46818
1.76283
1.05736
0.35207
35.7528
35.3175
34.7922
34.2061
33.577
32.9132
32.2143
31.4709
30.6649
29.7694
28.7518
27.5806
26.237
24.7278
23.0941
21.4069
19.7516
18.2
16.7956
15.55
14.4509
13.4732
12.5882
11.7698
10.9965
10.2527
9.52711
8.81238
8.10373
7.39822
6.69413
5.99047
5.28674
4.5827
3.87827
3.17345
2.46829
1.76288
1.05737
0.352054
35.6505
35.232
34.7203
34.143
33.5177
32.8526
32.1476
31.3945
30.5765
29.6695
28.6448
27.4752
26.146
24.6652
23.0711
21.4278
19.8115
18.2877
16.8971
15.6529
14.5461
13.5556
12.6559
11.8231
11.0371
10.2827
9.54875
8.82763
8.11424
7.40532
6.69881
5.99349
5.28863
4.58385
3.87894
3.17382
2.46847
1.76295
1.05738
0.352028
35.5073
35.1136
34.6218
34.0577
33.4384
32.7725
32.0604
31.2953
30.4627
29.5419
28.5089
27.3423
26.0317
24.5868
23.042
21.4532
19.8858
18.3972
17.0249
15.7833
14.6676
13.6613
12.7432
11.8922
11.09
10.3219
9.57711
8.84764
8.12806
7.41465
6.70498
5.99747
5.29113
4.58537
3.87983
3.17431
2.46872
1.76306
1.0574
0.352004
35.3348
34.9732
34.507
33.96
33.3491
32.6836
31.965
31.1879
30.3406
29.406
28.3653
27.2028
25.9124
24.505
23.0112
21.4784
19.9617
18.5104
17.1583
15.9206
14.7966
13.7745
12.8373
11.9671
11.1475
10.3648
9.60819
8.86964
8.14327
7.42494
6.71178
6.00185
5.29388
4.58704
3.8808
3.17484
2.469
1.76318
1.05744
0.351994
35.1477
34.8243
34.3878
33.8606
33.2603
32.5969
31.8734
31.0862
30.226
29.2795
28.2327
27.0746
25.8032
24.43
22.9822
21.4999
20.0292
18.6123
17.2796
16.0468
14.9161
13.8802
12.9258
12.038
11.2022
10.4057
9.63795
8.89074
8.15789
7.43483
6.71832
6.00607
5.29652
4.58864
3.88172
3.17535
2.46926
1.76331
1.0575
0.352011
34.963
34.6817
34.2766
33.7705
33.1818
32.5222
31.796
31.0014
30.1313
29.1758
28.1245
26.9705
25.7146
24.3687
22.9575
21.5154
20.0818
18.693
17.3767
16.1487
15.0135
13.9669
12.9989
12.0969
11.2479
10.4399
9.66291
8.90847
8.17018
7.44315
6.7238
6.00959
5.29871
4.58995
3.88248
3.17576
2.46947
1.76342
1.05758
0.352062
34.8
34.5609
34.1858
33.6993
33.1219
32.4669
31.74
30.9409
30.0644
29.1029
28.0486
26.8975
25.6522
24.3252
22.9391
21.5248
20.1168
18.7479
17.4434
16.2193
15.0814
14.0278
13.0504
12.1385
11.2802
10.4642
9.68061
8.92103
8.17885
7.44898
6.72762
6.01202
5.3002
4.59082
3.88295
3.176
2.46959
1.7635
1.05765
0.352145
34.6798
34.4774
34.1264
33.6552
33.0868
32.4359
31.7096
30.9086
30.0289
29.0641
28.0081
26.8584
25.6186
24.3015
22.9287
21.529
20.1348
18.7765
17.4785
16.2565
15.1174
14.0599
13.0776
12.1603
11.297
10.4768
9.68965
8.92734
8.18312
7.45178
6.7294
6.01309
5.30081
4.59114
3.8831
3.17605
2.46959
1.7635
1.0577
0.35224
34.6241
34.4473
34.1102
33.6467
33.0824
32.4336
31.7082
30.9073
30.0271
29.0616
28.005
26.8549
25.6154
24.2992
22.9278
21.5299
20.1372
18.7799
17.4822
16.26
15.1202
14.0619
13.0787
12.1608
11.2969
10.4763
9.68899
8.92661
8.1824
7.45112
6.72882
6.01261
5.30042
4.59083
3.88285
3.17586
2.46946
1.76341
1.05766
0.352284
34.6795
34.4772
34.1262
33.655
33.0865
32.4356
31.7094
30.9083
30.0286
29.0639
28.0079
26.8582
25.6184
24.3012
22.9283
21.5285
20.1341
18.7756
17.4774
16.2554
15.1161
14.0587
13.0764
12.1592
11.2961
10.4759
9.68892
8.92673
8.18262
7.45139
6.72909
6.01285
5.30064
4.59101
3.88301
3.176
2.46957
1.7635
1.0577
0.352242
34.7232
34.4825
34.1127
33.6327
33.06
32.4064
31.6777
30.8743
29.9925
29.0264
27.9709
26.8238
25.5894
24.2803
22.9175
21.5287
20.1451
18.7958
17.5043
16.2861
15.1481
14.0896
13.1047
12.1841
11.317
10.4931
9.70256
8.93734
8.1907
7.45743
6.73352
6.01606
5.30293
4.59262
3.88413
3.17677
2.47011
1.76388
1.05796
0.352315
34.8395
34.5527
34.1541
33.6567
33.0737
32.4145
31.6833
30.8794
29.9983
29.0336
27.9792
26.8324
25.597
24.2853
22.9186
21.5255
20.138
18.7863
17.494
16.2765
15.1401
14.0838
13.101
12.1822
11.3166
10.4936
9.70372
8.93878
8.19221
7.45886
6.7348
6.01716
5.30383
4.59335
3.88471
3.17722
2.47044
1.76411
1.05808
0.352298
35.0056
34.6671
34.2341
33.7146
33.1185
32.4527
31.7198
30.9175
30.0399
29.0788
28.0263
26.8776
25.6352
24.3112
22.9282
21.5172
20.1135
18.7496
17.4504
16.2313
15.0974
14.0462
13.0699
12.1577
11.2981
10.4802
9.69439
8.93253
8.1882
7.45642
6.73342
6.01645
5.30355
4.59331
3.8848
3.17736
2.47058
1.76422
1.05814
0.352281
35.1973
34.8069
34.3383
33.7953
33.1854
32.5134
31.7803
30.982
30.1106
29.1554
28.1055
26.9532
25.6989
24.3542
22.9439
21.5033
20.0725
18.6883
17.3777
16.1556
15.0255
13.9826
13.0165
12.115
11.2653
10.4558
9.67681
8.92025
8.17988
7.45094
6.72995
6.01434
5.30233
4.59267
3.8845
3.17726
2.47058
1.76426
1.05817
0.352291
35.3926
34.9547
34.4526
33.8874
33.2647
32.5879
31.8563
31.0642
30.2014
29.2541
28.2078
27.0511
25.7813
24.4097
22.9636
21.484
20.0181
18.608
17.2829
16.0575
14.9328
13.9006
12.9479
12.06
11.2228
10.4241
9.65382
8.90403
8.16873
7.44349
6.7251
6.0113
5.30049
4.59162
3.88394
3.177
2.47049
1.76424
1.05819
0.352331
35.5729
35.0948
34.5638
33.9793
33.3459
32.6659
31.9374
31.153
30.3003
29.3625
28.3209
27.1598
25.8732
24.4714
22.9851
21.4615
19.9562
18.5175
17.1773
15.949
14.8308
13.811
12.8732
12.0003
11.1768
10.3897
9.62888
8.88639
8.15656
7.43531
6.71974
6.00789
5.2984
4.59038
3.88326
3.17665
2.47034
1.7642
1.05821
0.352391
35.7227
35.2132
34.6594
34.0599
33.4185
32.7369
32.0122
31.2358
30.3934
29.4651
28.4287
27.2642
25.962
24.5312
23.0055
21.4389
19.8955
18.4296
17.0755
15.8454
14.7343
13.7267
12.8032
11.9446
11.134
10.3579
9.60575
8.87003
8.14526
7.42769
6.71473
6.00468
5.29641
4.5892
3.88259
3.17631
2.47019
1.76416
1.05823
0.352458
35.8297
35.2988
34.7294
34.1196
33.473
32.7908
32.0696
31.2999
30.4659
29.5457
28.514
27.3474
26.0331
24.5793
23.0218
21.4204
19.8463
18.3591
16.9945
15.7637
14.6586
13.661
12.7489
11.9016
11.101
10.3333
9.58799
8.85748
8.1366
7.42185
6.71089
6.00222
5.29488
4.58829
3.88208
3.17604
2.47006
1.76413
1.05825
0.352513
35.8853
35.3436
34.7663
34.1514
33.5022
32.8199
32.1008
31.3349
30.5056
29.5901
28.5612
27.3936
26.0729
24.6063
23.0309
21.4099
19.8186
18.3196
16.9495
15.7185
14.617
13.625
12.7193
11.8782
11.0832
10.3201
9.57839
8.8507
8.13193
7.4187
6.70882
6.00089
5.29406
4.5878
3.8818
3.17589
2.47
1.76411
1.05826
0.352545
35.8854
35.3436
34.7663
34.1514
33.5022
32.8199
32.1008
31.3349
30.5057
29.5901
28.5612
27.3936
26.0729
24.6063
23.0309
21.4099
19.8186
18.3197
16.9496
15.7186
14.6171
13.6251
12.7195
11.8783
11.0833
10.3202
9.57847
8.85077
8.13198
7.41874
6.70885
6.00092
5.29409
4.58782
3.88181
3.1759
2.47001
1.76411
1.05826
0.352545
35.8298
35.2988
34.7294
34.1197
33.4731
32.7909
32.0697
31.3
30.466
29.5457
28.514
27.3474
26.0331
24.5793
23.0218
21.4205
19.8465
18.3593
16.9949
15.764
14.659
13.6614
12.7493
11.9019
11.1014
10.3336
9.58822
8.85767
8.13677
7.42198
6.711
6.0023
5.29495
4.58834
3.88211
3.17606
2.47008
1.76413
1.05825
0.352513
35.7228
35.2133
34.6595
34.06
33.4186
32.737
32.0123
31.236
30.3935
29.4652
28.4288
27.2643
25.962
24.5312
23.0055
21.4391
19.8958
18.43
17.076
15.846
14.7349
13.7273
12.8038
11.9451
11.1345
10.3583
9.60612
8.87035
8.14553
7.42791
6.71491
6.00482
5.29652
4.58928
3.88265
3.17635
2.47021
1.76417
1.05824
0.352457
35.5731
35.095
34.5639
33.9795
33.3461
32.6661
31.9375
31.1532
30.3005
29.3626
28.321
27.1599
25.8732
24.4715
22.9852
21.4617
19.9566
18.518
17.1779
15.9497
14.8316
13.8118
12.8739
12.001
11.1774
10.3903
9.62938
8.88681
8.15692
7.43559
6.71997
6.00807
5.29854
4.59049
3.88333
3.1767
2.47037
1.76422
1.05822
0.35239
35.3928
34.9549
34.4528
33.8876
33.2649
32.5881
31.8565
31.0644
30.2016
29.2543
28.208
27.0512
25.7814
24.4098
22.9638
21.4844
20.0186
18.6086
17.2837
16.0584
14.9337
13.9015
12.9488
12.0608
11.2236
10.4248
9.65441
8.90453
8.16915
7.44384
6.72538
6.01151
5.30066
4.59174
3.88403
3.17706
2.47052
1.76426
1.05819
0.352329
35.1975
34.8071
34.3385
33.7955
33.1856
32.5137
31.7805
30.9822
30.1108
29.1556
28.1056
26.9534
25.699
24.3544
22.9442
21.5037
20.0731
18.689
17.3786
16.1566
15.0266
13.9836
13.0176
12.1159
11.2661
10.4566
9.67748
8.92081
8.18034
7.45132
6.73025
6.01458
5.30251
4.5928
3.8846
3.17732
2.47062
1.76427
1.05817
0.352289
35.0059
34.6673
34.2343
33.7148
33.1187
32.4529
31.72
30.9177
30.0401
29.0791
28.0265
26.8778
25.6354
24.3114
22.9285
21.5177
20.1141
18.7504
17.4514
16.2323
15.0985
14.0474
13.071
12.1587
11.299
10.4811
9.6951
8.93313
8.1887
7.45682
6.73373
6.0167
5.30373
4.59345
3.88489
3.17742
2.47062
1.76424
1.05814
0.352278
34.8397
34.5529
34.1543
33.6569
33.0739
32.4147
31.6835
30.8796
29.9985
29.0338
27.9794
26.8326
25.5972
24.2855
22.9189
21.526
20.1387
18.7872
17.495
16.2776
15.1413
14.0849
13.1021
12.1832
11.3175
10.4944
9.70444
8.93938
8.19271
7.45926
6.73512
6.0174
5.30401
4.59348
3.8848
3.17727
2.47047
1.76412
1.05808
0.352294
34.7235
34.4827
34.1129
33.633
33.0602
32.4066
31.6779
30.8745
29.9927
29.0267
27.9711
26.824
25.5896
24.2806
22.9179
21.5293
20.1458
18.7966
17.5053
16.2873
15.1493
14.0908
13.1058
12.1851
11.318
10.4939
9.70327
8.93793
8.19119
7.45781
6.73383
6.01629
5.3031
4.59274
3.88421
3.17682
2.47013
1.76388
1.05796
0.35231
34.6798
34.4774
34.1264
33.6552
33.0868
32.4359
31.7096
30.9086
30.0289
29.0641
28.0082
26.8584
25.6186
24.3015
22.9286
21.529
20.1348
18.7765
17.4784
16.2565
15.1173
14.0599
13.0775
12.1603
11.297
10.4767
9.6896
8.92729
8.18308
7.45175
6.72937
6.01306
5.30079
4.59112
3.88308
3.17604
2.46958
1.76349
1.05769
0.352232
34.7998
34.5607
34.1856
33.699
33.1217
32.4666
31.7397
30.9406
30.0642
29.1026
28.0484
26.8973
25.652
24.325
22.9388
21.5242
20.1161
18.747
17.4424
16.2181
15.0802
14.0266
13.0493
12.1374
11.2792
10.4634
9.67988
8.92041
8.17834
7.44857
6.7273
6.01177
5.30002
4.59069
3.88286
3.17595
2.46956
1.76348
1.05765
0.352145
34.8395
34.5527
34.1541
33.6566
33.0737
32.4145
31.6833
30.8794
29.9983
29.0336
27.9792
26.8324
25.597
24.2852
22.9185
21.5255
20.138
18.7863
17.494
16.2765
15.1401
14.0838
13.101
12.1822
11.3166
10.4936
9.70373
8.93879
8.19222
7.45886
6.73481
6.01716
5.30383
4.59335
3.88471
3.17722
2.47044
1.76411
1.05808
0.352298
34.9515
34.614
34.1826
33.6652
33.0703
32.404
31.6685
30.8622
29.9801
29.0157
27.9625
26.8178
25.5849
24.2759
22.9122
21.5223
20.1385
18.7907
17.5023
16.2881
15.1542
14.0991
13.1165
12.197
11.3301
10.5054
9.7137
8.94699
8.19881
7.46405
6.73882
6.02021
5.30612
4.59505
3.88595
3.17812
2.47109
1.76456
1.05835
0.352329
35.118
34.7238
34.2544
33.7124
33.1024
32.4279
31.6891
30.8829
30.0031
29.0417
27.9907
26.8456
25.6084
24.2908
22.9152
21.5126
20.1177
18.7627
17.4715
16.2585
15.1283
14.0783
13.1009
12.1861
11.3231
10.5014
9.71177
8.94646
8.19912
7.46482
6.73977
6.02119
5.30703
4.59585
3.88662
3.17867
2.47151
1.76487
1.05853
0.35236
35.3141
34.8626
34.3537
33.7858
33.1601
32.4778
31.7373
30.9339
30.0595
29.1038
28.056
26.9085
25.6611
24.3249
22.9244
21.4951
20.0768
18.7056
17.4068
16.1938
15.0692
14.0279
13.0602
12.1547
11.2999
10.4849
9.70047
8.93903
8.19447
7.46207
6.7383
6.02052
5.30684
4.59593
3.88684
3.17892
2.47176
1.76507
1.05867
0.352423
35.5165
35.0117
34.4656
33.8729
33.2328
32.5442
31.804
31.0059
30.1396
29.1919
28.1487
26.998
25.7364
24.3738
22.9378
21.4702
20.0188
18.6249
17.3157
16.103
14.9861
13.9566
13.0021
12.1094
11.2657
10.46
9.68288
8.92698
8.18648
7.45696
6.73516
6.0187
5.30587
4.59549
3.8867
3.17896
2.47187
1.7652
1.05879
0.352521
35.7048
35.1541
34.5756
33.9616
33.3092
32.6162
31.8781
31.0871
30.2309
29.2933
28.2561
27.1027
25.8251
24.4318
22.9535
21.4403
19.9497
18.5299
17.2097
15.9983
14.8911
13.8755
12.9362
12.0578
11.2267
10.4314
9.66253
8.91287
8.17696
7.45073
6.73122
6.01631
5.3045
4.59476
3.88637
3.17886
2.4719
1.76529
1.0589
0.352639
35.8618
35.275
34.671
34.0401
33.3785
32.6829
31.948
31.1646
30.3189
29.3922
28.3621
27.2073
25.9148
24.4908
22.9693
21.4093
19.8791
18.4341
17.1044
15.8958
14.799
13.7975
12.8731
12.0086
11.1896
10.4042
9.6431
8.89934
8.16778
7.44466
6.72733
6.0139
5.30308
4.59398
3.88598
3.1787
2.47187
1.76533
1.05898
0.352757
35.9742
35.3627
34.741
34.0986
33.4309
32.7341
32.0022
31.2254
30.3887
29.4713
28.4479
27.293
25.9894
24.5406
22.9827
21.3829
19.8198
18.3549
17.0185
15.8133
14.7257
13.7359
12.8235
11.9702
11.1607
10.383
9.62796
8.8888
8.16061
7.43991
6.72427
6.012
5.30195
4.59334
3.88566
3.17856
2.47184
1.76536
1.05905
0.352852
36.0327
35.4086
34.778
34.1298
33.4591
32.7618
32.0318
31.2589
30.4273
29.5153
28.4961
27.3417
26.0323
24.5696
22.9905
21.3676
19.7854
18.3095
16.97
15.7672
14.6851
13.702
12.7964
11.9492
11.1449
10.3715
9.61974
8.88307
8.15671
7.43733
6.72261
6.01096
5.30133
4.59299
3.88548
3.17848
2.47182
1.76538
1.05908
0.352904
36.0327
35.4087
34.778
34.1298
33.4591
32.7618
32.0318
31.2589
30.4273
29.5153
28.4961
27.3417
26.0322
24.5695
22.9905
21.3676
19.7854
18.3096
16.9701
15.7673
14.6852
13.7022
12.7965
11.9493
11.145
10.3716
9.61981
8.88313
8.15677
7.43738
6.72264
6.01099
5.30135
4.593
3.88549
3.17849
2.47183
1.76538
1.05908
0.352904
35.9742
35.3627
34.7411
34.0987
33.431
32.7341
32.0023
31.2255
30.3888
29.4713
28.4479
27.293
25.9893
24.5406
22.9827
21.383
19.8199
18.3551
17.0189
15.8137
14.7261
13.7363
12.8239
11.9705
11.161
10.3833
9.62819
8.88899
8.16077
7.44004
6.72438
6.01208
5.30201
4.59339
3.88569
3.17859
2.47186
1.76537
1.05905
0.35285
35.8619
35.2751
34.6711
34.0403
33.3786
32.683
31.9481
31.1647
30.3191
29.3923
28.3622
27.2073
25.9147
24.4908
22.9694
21.4094
19.8794
18.4345
17.1049
15.8964
14.7996
13.7981
12.8736
12.0092
11.1901
10.4046
9.64346
8.89965
8.16804
7.44487
6.7275
6.01404
5.30318
4.59405
3.88604
3.17874
2.4719
1.76535
1.05899
0.352753
35.7049
35.1542
34.5758
33.9618
33.3094
32.6164
31.8783
31.0873
30.231
29.2935
28.2563
27.1028
25.8251
24.4318
22.9536
21.4405
19.9501
18.5304
17.2103
15.9991
14.8919
13.8763
12.9369
12.0585
11.2274
10.432
9.66301
8.91328
8.1773
7.45101
6.73144
6.01648
5.30463
4.59486
3.88645
3.17891
2.47193
1.7653
1.0589
0.352634
35.5167
35.0119
34.4657
33.8731
33.233
32.5444
31.8042
31.0061
30.1398
29.1921
28.1488
26.9982
25.7365
24.3739
22.938
21.4706
20.0193
18.6255
17.3165
16.1039
14.9871
13.9575
13.003
12.1102
11.2665
10.4606
9.68345
8.92747
8.18688
7.45729
6.73542
6.01891
5.30603
4.59561
3.88679
3.17902
2.47191
1.76523
1.0588
0.352514
35.3143
34.8628
34.3539
33.786
33.1603
32.478
31.7376
30.9342
30.0598
29.104
28.0562
26.9087
25.6613
24.3251
22.9247
21.4955
20.0774
18.7063
17.4077
16.1948
15.0702
14.0289
13.0612
12.1557
11.3007
10.4856
9.70111
8.93958
8.19492
7.46244
6.73859
6.02075
5.30702
4.59606
3.88693
3.17898
2.4718
1.7651
1.05868
0.352415
35.1182
34.724
34.2546
33.7126
33.1027
32.4281
31.6893
30.8831
30.0034
29.0419
27.991
26.8458
25.6086
24.291
22.9155
21.513
20.1184
18.7635
17.4725
16.2595
15.1294
14.0794
13.102
12.1871
11.324
10.5022
9.71245
8.94703
8.1996
7.4652
6.74008
6.02143
5.30721
4.59598
3.88672
3.17873
2.47155
1.76489
1.05853
0.352351
34.9517
34.6142
34.1828
33.6655
33.0706
32.4042
31.6687
30.8624
29.9804
29.0159
27.9627
26.818
25.5851
24.2762
22.9125
21.5228
20.1392
18.7916
17.5033
16.2892
15.1553
14.1003
13.1176
12.198
11.331
10.5062
9.7144
8.94758
8.1993
7.46444
6.73912
6.02044
5.30629
4.59517
3.88603
3.17817
2.47112
1.76457
1.05835
0.352319
34.8397
34.5529
34.1543
33.6569
33.0739
32.4147
31.6835
30.8796
29.9985
29.0338
27.9794
26.8326
25.5972
24.2855
22.9189
21.526
20.1388
18.7872
17.4951
16.2777
15.1413
14.085
13.1021
12.1832
11.3175
10.4944
9.70442
8.93936
8.19269
7.45924
6.7351
6.01738
5.30399
4.59346
3.88478
3.17726
2.47046
1.76411
1.05808
0.352288
34.8
34.5609
34.1858
33.6993
33.1219
32.4669
31.74
30.9409
30.0644
29.1029
28.0486
26.8975
25.6522
24.3252
22.9391
21.5248
20.1168
18.7479
17.4434
16.2192
15.0814
14.0277
13.0503
12.1384
11.2801
10.4641
9.68053
8.92095
8.17877
7.44891
6.72756
6.01196
5.30015
4.59078
3.88292
3.17597
2.46956
1.76347
1.05763
0.352128
34.9628
34.6815
34.2764
33.7702
33.1816
32.522
31.7958
31.0011
30.131
29.1756
28.1243
26.9703
25.7143
24.3684
22.9571
21.5149
20.0811
18.6922
17.3757
16.1476
15.0124
13.9658
12.9978
12.0958
11.2469
10.4391
9.66219
8.90787
8.16968
7.44274
6.72348
6.00934
5.29853
4.58981
3.88238
3.17569
2.46943
1.7634
1.05757
0.35206
35.0056
34.667
34.2341
33.7146
33.1185
32.4527
31.7197
30.9174
30.0399
29.0788
28.0262
26.8775
25.6351
24.3111
22.9281
21.5172
20.1135
18.7496
17.4505
16.2313
15.0974
14.0463
13.07
12.1577
11.2982
10.4803
9.69441
8.93255
8.18822
7.45643
6.73342
6.01646
5.30355
4.59332
3.8848
3.17736
2.47058
1.76422
1.05814
0.352281
35.118
34.7238
34.2543
33.7124
33.1024
32.4279
31.689
30.8829
30.0031
29.0417
27.9907
26.8455
25.6083
24.2907
22.9151
21.5125
20.1177
18.7627
17.4716
16.2585
15.1283
14.0783
13.1009
12.1862
11.3231
10.5014
9.71178
8.94646
8.19913
7.46482
6.73978
6.02119
5.30704
4.59585
3.88663
3.17867
2.47152
1.76487
1.05853
0.35236
35.2861
34.8316