# vtk DataFile Version 2.0
I need something to put here
ASCII

DATASET STRUCTURED_GRID
DIMENSIONS 14 11 21
POINTS 3234 float
2.700000 0.000000 0.000000
2.800000 0.000000 0.000000
2.900000 0.000000 0.000000
3.000000 0.000000 0.000000
3.100000 0.000000 0.000000
3.200000 0.000000 0.000000
3.300000 0.000000 0.000000
3.400000 0.000000 0.000000
3.500000 0.000000 0.000000
3.600000 0.000000 0.000000
3.700000 0.000000 0.000000
3.800000 0.000000 0.000000
3.900000 0.000000 0.000000
4.000000 0.000000 0.000000
2.700000 0.100000 0.000000
2.800000 0.100000 0.000000
2.900000 0.100000 0.000000
3.000000 0.100000 0.000000
3.100000 0.100000 0.000000
3.200000 0.100000 0.000000
3.300000 0.100000 0.000000
3.400000 0.100000 0.000000
3.500000 0.100000 0.000000
3.600000 0.100000 0.000000
3.700000 0.100000 0.000000
3.800000 0.100000 0.000000
3.900000 0.100000 0.000000
4.000000 0.100000 0.000000
2.700000 0.200000 0.000000
2.800000 0.200000 0.000000
2.900000 0.200000 0.000000
3.000000 0.200000 0.000000
3.100000 0.200000 0.000000
3.200000 0.200000 0.000000
3.300000 0.200000 0.000000
3.400000 0.200000 0.000000
3.500000 0.200000 0.000000
3.600000 0.200000 0.000000
3.700000 0.200000 0.000000
3.800000 0.200000 0.000000
3.900000 0.200000 0.000000
4.000000 0.200000 0.000000
2.700000 0.300000 0.000000
2.800000 0.300000 0.000000
2.900000 0.300000 0.000000
3.000000 0.300000 0.000000
3.100000 0.300000 0.000000
3.200000 0.300000 0.000000
3.300000 0.300000 0.000000
3.400000 0.300000 0.000000
3.500000 0.300000 0.000000
3.600000 0.300000 0.000000
3.700000 0.300000 0.000000
3.800000 0.300000 0.000000
3.900000 0.300000 0.000000
4.000000 0.300000 0.000000
2.700000 0.400000 0.000000
2.800000 0.400000 0.000000
2.900000 0.400000 0.000000
3.000000 0.400000 0.000000
3.100000 0.400000 0.000000
3.200000 0.400000 0.000000
3.300000 0.400000 0.000000
3.400000 0.400000 0.000000
3.500000 0.400000 0.000000
3.600000 0.400000 0.000000
3.700000 0.400000 0.000000
3.800000 0.400000 0.000000
3.900000 0.400000 0.000000
4.000000 0.400000 0.000000
2.700000 0.500000 0.000000
2.800000 0.500000 0.000000
2.900000 0.500000 0.000000
3.000000 0.500000 0.000000
3.100000 0.500000 0.000000
3.200000 0.500000 0.000000
3.300000 0.500000 0.000000
3.400000 0.500000 0.000000
3.500000 0.500000 0.000000
3.600000 0.500000 0.000000
3.700000 0.500000 0.000000
3.800000 0.500000 0.000000
3.900000 0.500000 0.000000
4.000000 0.500000 0.000000
2.700000 0.600000 0.000000
2.800000 0.600000 0.000000
2.900000 0.600000 0.000000
3.000000 0.600000 0.000000
3.100000 0.600000 0.000000
3.200000 0.600000 0.000000
3.300000 0.600000 0.000000
3.400000 0.600000 0.000000
3.500000 0.600000 0.000000
3.600000 0.600000 0.000000
3.700000 0.600000 0.000000
3.800000 0.600000 0.000000
3.900000 0.600000 0.000000
4.000000 0.600000 0.000000
2.700000 0.700000 0.000000
2.800000 0.700000 0.000000
2.900000 0.700000 0.000000
3.000000 0.700000 0.000000
3.100000 0.700000 0.000000
3.200000 0.700000 0.000000
3.300000 0.700000 0.000000
3.400000 0.700000 0.000000
3.500000 0.700000 0.000000
3.600000 0.700000 0.000000
3.700000 0.700000 0.000000
3.800000 0.700000 0.000000
3.900000 0.700000 0.000000
4.000000 0.700000 0.000000
2.700000 0.800000 0.000000
2.800000 0.800000 0.000000
2.900000 0.800000 0.000000
3.000000 0.800000 0.000000
3.100000 0.800000 0.000000
3.200000 0.800000 0.000000
3.300000 0.800000 0.000000
3.400000 0.800000 0.000000
3.500000 0.800000 0.000000
3.600000 0.800000 0.000000
3.700000 0.800000 0.000000
3.800000 0.800000 0.000000
3.900000 0.800000 0.000000
4.000000 0.800000 0.000000
2.700000 0.900000 0.000000
2.800000 0.900000 0.000000
2.900000 0.900000 0.000000
3.000000 0.900000 0.000000
3.100000 0.900000 0.000000
3.200000 0.900000 0.000000
3.300000 0.900000 0.000000
3.400000 0.900000 0.000000
3.500000 0.900000 0.000000
3.600000 0.900000 0.000000
3.700000 0.900000 0.000000
3.800000 0.900000 0.000000
3.900000 0.900000 0.000000
4.000000 0.900000 0.000000
2.700000 1.000000 0.000000
2.800000 1.000000 0.000000
2.900000 1.000000 0.000000
3.000000 1.000000 0.000000
3.100000 1.000000 0.000000
3.200000 1.000000 0.000000
3.300000 1.000000 0.000000
3.400000 1.000000 0.000000
3.500000 1.000000 0.000000
3.600000 1.000000 0.000000
3.700000 1.000000 0.000000
3.800000 1.000000 0.000000
3.900000 1.000000 0.000000
4.000000 1.000000 0.000000
2.700000 0.000000 0.100000
2.800000 0.000000 0.100000
2.900000 0.000000 0.100000
3.000000 0.000000 0.100000
3.100000 0.000000 0.100000
3.200000 0.000000 0.100000
3.300000 0.000000 0.100000
3.400000 0.000000 0.100000
3.500000 0.000000 0.100000
3.600000 0.000000 0.100000
3.700000 0.000000 0.100000
3.800000 0.000000 0.100000
3.900000 0.000000 0.100000
4.000000 0.000000 0.100000
2.700000 0.100000 0.100000
2.800000 0.100000 0.100000
2.900000 0.100000 0.100000
3.000000 0.100000 0.100000
3.100000 0.100000 0.100000
3.200000 0.100000 0.100000
3.300000 0.100000 0.100000
3.400000 0.100000 0.100000
3.500000 0.100000 0.100000
3.600000 0.100000 0.100000
3.700000 0.100000 0.100000
3.800000 0.100000 0.100000
3.900000 0.100000 0.100000
4.000000 0.100000 0.100000
2.700000 0.200000 0.100000
2.800000 0.200000 0.100000
2.900000 0.200000 0.100000
3.000000 0.200000 0.100000
3.100000 0.200000 0.100000
3.200000 0.200000 0.100000
3.300000 0.200000 0.100000
3.400000 0.200000 0.100000
3.500000 0.200000 0.100000
3.600000 0.200000 0.100000
3.700000 0.200000 0.100000
3.800000 0.200000 0.100000
3.900000 0.200000 0.100000
4.000000 0.200000 0.100000
2.700000 0.300000 0.100000
2.800000 0.300000 0.100000
2.900000 0.300000 0.100000
3.000000 0.300000 0.100000
3.100000 0.300000 0.100000
3.200000 0.300000 0.100000
3.300000 0.300000 0.100000
3.400000 0.300000 0.100000
3.500000 0.300000 0.100000
3.600000 0.300000 0.100000
3.700000 0.300000 0.100000
3.800000 0.300000 0.100000
3.900000 0.300000 0.100000
4.000000 0.300000 0.100000
2.700000 0.400000 0.100000
2.800000 0.400000 0.100000
2.900000 0.400000 0.100000
3.000000 0.400000 0.100000
3.100000 0.400000 0.100000
3.200000 0.400000 0.100000
3.300000 0.400000 0.100000
3.400000 0.400000 0.100000
3.500000 0.400000 0.100000
3.600000 0.400000 0.100000
3.700000 0.400000 0.100000
3.800000 0.400000 0.100000
3.900000 0.400000 0.100000
4.000000 0.400000 0.100000
2.700000 0.500000 0.100000
2.800000 0.500000 0.100000
2.900000 0.500000 0.100000
3.000000 0.500000 0.100000
3.100000 0.500000 0.100000
3.200000 0.500000 0.100000
3.300000 0.500000 0.100000
3.400000 0.500000 0.100000
3.500000 0.500000 0.100000
3.600000 0.500000 0.100000
3.700000 0.500000 0.100000
3.800000 0.500000 0.100000
3.900000 0.500000 0.100000
4.000000 0.500000 0.100000
2.700000 0.600000 0.100000
2.800000 0.600000 0.100000
2.900000 0.600000 0.100000
3.000000 0.600000 0.100000
3.100000 0.600000 0.100000
3.200000 0.600000 0.100000
3.300000 0.600000 0.100000
3.400000 0.600000 0.100000
3.500000 0.600000 0.100000
3.600000 0.600000 0.100000
3.700000 0.600000 0.100000
3.800000 0.600000 0.100000
3.900000 0.600000 0.100000
4.000000 0.600000 0.100000
2.700000 0.700000 0.100000
2.800000 0.700000 0.100000
2.900000 0.700000 0.100000
3.000000 0.700000 0.100000
3.100000 0.700000 0.100000
3.200000 0.700000 0.100000
3.300000 0.700000 0.100000
3.400000 0.700000 0.100000
3.500000 0.700000 0.100000
3.600000 0.700000 0.100000
3.700000 0.700000 0.100000
3.800000 0.700000 0.100000
3.900000 0.700000 0.100000
4.000000 0.700000 0.100000
2.700000 0.800000 0.100000
2.800000 0.800000 0.100000
2.900000 0.800000 0.100000
3.000000 0.800000 0.100000
3.100000 0.800000 0.100000
3.200000 0.800000 0.100000
3.300000 0.800000 0.100000
3.400000 0.800000 0.100000
3.500000 0.800000 0.100000
3.600000 0.800000 0.100000
3.700000 0.800000 0.100000
3.800000 0.800000 0.100000
3.900000 0.800000 0.100000
4.000000 0.800000 0.100000
2.700000 0.900000 0.100000
2.800000 0.900000 0.100000
2.900000 0.900000 0.100000
3.000000 0.900000 0.100000
3.100000 0.900000 0.100000
3.200000 0.900000 0.100000
3.300000 0.900000 0.100000
3.400000 0.900000 0.100000
3.500000 0.900000 0.100000
3.600000 0.900000 0.100000
3.700000 0.900000 0.100000
3.800000 0.900000 0.100000
3.900000 0.900000 0.100000
4.000000 0.900000 0.100000
2.700000 1.000000 0.100000
2.800000 1.000000 0.100000
2.900000 1.000000 0.100000
3.000000 1.000000 0.100000
3.100000 1.000000 0.100000
3.200000 1.000000 0.100000
3.300000 1.000000 0.100000
3.400000 1.000000 0.100000
3.500000 1.000000 0.100000
3.600000 1.000000 0.100000
3.700000 1.000000 0.100000
3.800000 1.000000 0.100000
3.900000 1.000000 0.100000
4.000000 1.000000 0.100000
2.700000 0.000000 0.200000
2.800000 0.000000 0.200000
2.900000 0.000000 0.200000
3.000000 0.000000 0.200000
3.100000 0.000000 0.200000
3.200000 0.000000 0.200000
3.300000 0.000000 0.200000
3.400000 0.000000 0.200000
3.500000 0.000000 0.200000
3.600000 0.000000 0.200000
3.700000 0.000000 0.200000
3.800000 0.000000 0.200000
3.900000 0.000000 0.200000
4.000000 0.000000 0.200000
2.700000 0.100000 0.200000
2.800000 0.100000 0.200000
2.900000 0.100000 0.200000
3.000000 0.100000 0.200000
3.100000 0.100000 0.200000
3.200000 0.100000 0.200000
3.300000 0.100000 0.200000
3.400000 0.100000 0.200000
3.500000 0.100000 0.200000
3.600000 0.100000 0.200000
3.700000 0.100000 0.200000
3.800000 0.100000 0.200000
3.900000 0.100000 0.200000
4.000000 0.100000 0.200000
2.700000 0.200000 0.200000
2.800000 0.200000 0.200000
2.900000 0.200000 0.200000
3.000000 0.200000 0.200000
3.100000 0.200000 0.200000
3.200000 0.200000 0.200000
3.300000 0.200000 0.200000
3.400000 0.200000 0.200000
3.500000 0.200000 0.200000
3.600000 0.200000 0.200000
3.700000 0.200000 0.200000
3.800000 0.200000 0.200000
3.900000 0.200000 0.200000
4.000000 0.200000 0.200000
2.700000 0.300000 0.200000
2.800000 0.300000 0.200000
2.900000 0.300000 0.200000
3.000000 0.300000 0.200000
3.100000 0.300000 0.200000
3.200000 0.300000 0.200000
3.300000 0.300000 0.200000
3.400000 0.300000 0.200000
3.500000 0.300000 0.200000
3.600000 0.300000 0.200000
3.700000 0.300000 0.200000
3.800000 0.300000 0.200000
3.900000 0.300000 0.200000
4.000000 0.300000 0.200000
2.700000 0.400000 0.200000
[...]
CELL_DATA 2600
SCALARS pressure float 1
LOOKUP_TABLE default
8.79871
8.06002
7.33575
6.62174
5.91486
5.21282
4.51398
3.81721
3.12175
2.4271
1.73299
1.03929
0.346089
8.79923
8.06059
7.33631
6.62226
5.91531
5.21319
4.51429
3.81746
3.12194
2.42725
1.73308
1.03933
0.346028
8.79205
8.05557
7.33291
6.62002
5.91389
5.21233
4.51379
3.81719
3.12181
2.42718
1.73303
1.03924
0.3459
8.77803
8.04563
7.32604
6.61539
5.91085
5.21039
4.51259
3.81648
3.12141
2.42695
1.73288
1.03911
0.345785
8.75833
8.03162
7.31632
6.60881
5.9065
5.20759
4.51084
3.81542
3.12079
2.4266
1.73267
1.03898
0.345706
8.73493
8.015
7.30479
6.60099
5.90132
5.20424
4.50873
3.81414
3.12003
2.42617
1.73244
1.03885
0.345667
8.71057
7.99774
7.29282
6.59288
5.89594
5.20076
4.50654
3.8128
3.11924
2.42573
1.73221
1.03875
0.34566
8.68841
7.98206
7.28198
6.58553
5.89107
5.19761
4.50455
3.81158
3.11853
2.42533
1.73201
1.03868
0.345674
8.67155
7.97014
7.27373
6.57995
5.88737
5.19521
4.50304
3.81066
3.11799
2.42503
1.73186
1.03864
0.345693
8.66239
7.96368
7.26926
6.57692
5.88536
5.19391
4.50222
3.81015
3.11769
2.42487
1.73178
1.03861
0.345706
8.79919
8.06056
7.33629
6.62224
5.91529
5.21318
4.51427
3.81745
3.12193
2.42724
1.73308
1.03932
0.346026
8.81004
8.06897
7.34269
6.62702
5.91881
5.21573
4.5161
3.81874
3.12284
2.42789
1.73354
1.03964
0.346119
8.81094
8.0701
7.34387
6.62814
5.91981
5.21659
4.51681
3.81931
3.1233
2.42824
1.73379
1.03978
0.346092
8.8035
8.06511
7.34066
6.62618
5.91869
5.21601
4.51657
3.81927
3.12336
2.42833
1.73388
1.03982
0.346063
8.78953
8.05533
7.33402
6.6218
5.9159
5.21431
4.51558
3.81874
3.1231
2.42823
1.73385
1.03982
0.346063
8.7713
8.04245
7.32515
6.61586
5.91203
5.21186
4.51409
3.81788
3.12264
2.428
1.73376
1.0398
0.346096
8.75157
8.02847
7.31548
6.60933
5.90773
5.20911
4.51239
3.81687
3.12207
2.42771
1.73363
1.03978
0.346154
8.7333
8.0155
7.30649
6.60325
5.90372
5.20653
4.51078
3.8159
3.12152
2.42742
1.73351
1.03976
0.346219
8.71927
8.00555
7.29958
6.59856
5.90061
5.20452
4.50952
3.81514
3.12108
2.42719
1.73341
1.03975
0.346276
8.71162
8.00013
7.29582
6.596
5.89891
5.20342
4.50883
3.81472
3.12084
2.42706
1.73335
1.03974
0.346308
8.792
8.05552
7.33287
6.61998
5.91386
5.2123
4.51376
3.81717
3.12179
2.42717
1.73302
1.03923
0.345894
8.81093
8.07008
7.34385
6.62813
5.9198
5.21658
4.5168
3.8193
3.12329
2.42823
1.73378
1.03977
0.346089
8.81877
8.07653
7.34903
6.63221
5.92296
5.21898
4.51861
3.82065
3.12429
2.42896
1.7343
1.04008
0.346123
8.81711
8.076
7.3492
6.63275
5.92367
5.21973
4.51931
3.82128
3.12481
2.42938
1.73462
1.04027
0.346152
8.808
8.07
7.34541
6.6305
5.92244
5.21915
4.51913
3.82131
3.12496
2.42956
1.73479
1.0404
0.346217
8.79392
8.06033
7.33898
6.62636
5.91988
5.21765
4.51832
3.82093
3.12483
2.42957
1.73486
1.0405
0.34632
8.77767
8.04904
7.33134
6.62134
5.91669
5.21569
4.51718
3.82032
3.12454
2.42948
1.73487
1.04057
0.346447
8.76219
8.03822
7.32397
6.61645
5.91353
5.21373
4.516
3.81966
3.1242
2.42934
1.73486
1.04063
0.346575
8.75012
8.02978
7.3182
6.6126
5.91103
5.21216
4.51505
3.81911
3.12392
2.42921
1.73483
1.04068
0.346679
8.74351
8.02515
7.31502
6.61047
5.90964
5.21128
4.51451
3.8188
3.12375
2.42913
1.73481
1.0407
0.346737
8.77799
8.04558
7.32598
6.61534
5.9108
5.21035
4.51255
3.81645
3.12138
2.42693
1.73286
1.03909
0.345774
8.80352
8.0651
7.34064
6.62616
5.91867
5.21599
4.51655
3.81925
3.12334
2.42832
1.73386
1.03981
0.346057
8.81714
8.07601
7.3492
6.63275
5.92366
5.21972
4.51931
3.82127
3.12481
2.42938
1.73461
1.04027
0.34615
8.82026
8.07928
7.3523
6.63552
5.92603
5.22168
4.52089
3.82252
3.12578
2.43011
1.73514
1.0406
0.346238
8.81501
8.07644
7.35102
6.63519
5.92625
5.22217
4.52148
3.82312
3.12633
2.43058
1.73551
1.04085
0.346369
8.80402
8.06937
7.34669
6.6327
5.92495
5.22161
4.52136
3.82324
3.12656
2.43084
1.73576
1.04107
0.346546
8.7902
8.06019
7.34079
6.62905
5.92281
5.22045
4.52081
3.82305
3.12657
2.43096
1.73593
1.04125
0.346747
8.77655
8.05101
7.33477
6.62524
5.92049
5.21911
4.5201
3.82273
3.12648
2.431
1.73604
1.0414
0.346941
8.76572
8.04369
7.32994
6.62214
5.91857
5.21798
4.51947
3.82242
3.12637
2.431
1.7361
1.04151
0.347095
8.75974
8.03964
7.32726
6.62041
5.91749
5.21733
4.51911
3.82223
3.12629
2.43099
1.73613
1.04157
0.34718
8.75834
8.0316
7.31628
6.60876
5.90645
5.20754
4.51079
3.81538
3.12074
2.42656
1.73264
1.03895
0.345691
8.78959
8.05536
7.33402
6.62179
5.91589
5.21428
4.51556
3.81871
3.12308
2.42821
1.73383
1.0398
0.346054
8.80808
8.07004
7.34544
6.63051
5.92244
5.21914
4.51912
3.8213
3.12495
2.42955
1.73478
1.04039
0.346212
8.81507
8.07647
7.35104
6.63521
5.92626
5.22217
4.52148
3.82312
3.12632
2.43058
1.73551
1.04085
0.346367
8.81276
8.0762
7.35189
6.63658
5.92779
5.22366
4.52281
3.82425
3.12726
2.43132
1.73607
1.04123
0.346572
8.80393
8.07119
7.34934
6.63555
5.92764
5.22399
4.52336
3.82486
3.12784
2.43184
1.7365
1.04157
0.346826
8.79168
8.06363
7.3449
6.63313
5.92649
5.22359
4.52339
3.8251
3.12818
2.43219
1.73683
1.04187
0.347103
8.77911
8.05565
7.34003
6.6303
5.92496
5.22287
4.52315
3.82514
3.12834
2.43241
1.73707
1.04211
0.347365
8.76898
8.04916
7.33598
6.62788
5.9236
5.22218
4.52286
3.82508
3.12841
2.43254
1.73723
1.04229
0.34757
8.76334
8.04554
7.33371
6.62651
5.92281
5.22176
4.52267
3.82502
3.12843
2.4326
1.73731
1.04238
0.347683
8.73501
8.01503
7.30478
6.60096
5.90127
5.20419
4.50868
3.81409
3.11998
2.42613
1.7324
1.03882
0.345648
8.77144
8.04254
7.32519
6.61587
5.91202
5.21184
4.51407
3.81785
3.12261
2.42798
1.73373
1.03978
0.346085
8.79407
8.06043
7.33904
6.6264
5.9199
5.21765
4.51831
3.82092
3.12482
2.42956
1.73485
1.04048
0.346312
8.80415
8.06946
7.34675
6.63274
5.92497
5.22162
4.52136
3.82323
3.12655
2.43084
1.73576
1.04106
0.346541
8.80401
8.07125
7.34938
6.63557
5.92766
5.224
4.52336
3.82486
3.12784
2.43184
1.7365
1.04157
0.346823
8.79663
8.06784
7.34833
6.63583
5.92856
5.22514
4.52453
3.82594
3.12877
2.4326
1.7371
1.04203
0.347157
8.7853
8.06151
7.34512
6.6345
5.92831
5.22546
4.52511
3.8266
3.12941
2.43317
1.73759
1.04243
0.347511
8.77328
8.05444
7.34121
6.63254
5.92752
5.22534
4.52533
3.82697
3.12983
2.43358
1.73796
1.04277
0.34784
8.76345
8.04856
7.33783
6.63075
5.92668
5.22506
4.52537
3.82716
3.13009
2.43385
1.73822
1.04302
0.348094
8.75796
8.04525
7.33592
6.6297
5.92617
5.22486
4.52535
3.82724
3.1302
2.43398
1.73835
1.04315
0.348234
8.71073
7.99783
7.29286
6.59288
5.89592
5.20072
4.5065
3.81275
3.11919
2.42568
1.73216
1.03872
0.345638
8.7518
8.02862
7.31556
6.60937
5.90775
5.20911
4.51238
3.81684
3.12204
2.42768
1.73361
1.03975
0.34614
8.77792
8.04921
7.33145
6.62141
5.91672
5.21571
4.51718
3.82031
3.12453
2.42946
1.73486
1.04056
0.346437
8.79042
8.06036
7.3409
6.62912
5.92285
5.22047
4.52082
3.82305
3.12657
2.43096
1.73592
1.04124
0.34674
8.79185
8.06376
7.34499
6.63319
5.92653
5.22361
4.5234
3.82511
3.12818
2.43219
1.73682
1.04186
0.347098
8.78539
8.06158
7.34517
6.63454
5.92833
5.22548
4.52512
3.8266
3.12941
2.43317
1.73759
1.04243
0.347508
8.77454
8.05617
7.34299
6.63416
5.92889
5.22645
4.52621
3.82764
3.13034
2.43395
1.73822
1.04294
0.347935
8.76273
8.04979
7.33987
6.63296
5.92875
5.22685
4.52685
3.82834
3.131
2.43453
1.73872
1.04337
0.348327
8.75299
8.04437
7.33707
6.63171
5.92839
5.22697
4.52719
3.82876
3.13142
2.43493
1.73907
1.04368
0.348627
8.74753
8.04131
7.33545
6.63095
5.92813
5.22697
4.52733
3.82896
3.13163
2.43512
1.73925
1.04385
0.348791
8.68868
7.98223
7.28207
6.58557
5.89108
5.19759
4.50452
3.81154
3.11848
2.42528
1.73196
1.03864
0.345649
8.73362
8.01573
7.30664
6.60333
5.90376
5.20654
4.51078
3.81588
3.12149
2.42739
1.73348
1.03973
0.346203
8.76252
8.03846
7.32414
6.61656
5.9136
5.21377
4.51602
3.81966
3.1242
2.42932
1.73484
1.04062
0.346563
8.77686
8.05124
7.33494
6.62536
5.92056
5.21916
4.52013
3.82274
3.12648
2.431
1.73603
1.04139
0.346931
8.77937
8.05586
7.34018
6.6304
5.92503
5.22292
4.52318
3.82515
3.12835
2.43241
1.73707
1.04211
0.347358
8.77346
8.05459
7.34132
6.63262
5.92757
5.22537
4.52536
3.82699
3.12984
2.43359
1.73796
1.04277
0.347835
8.76282
8.04987
7.33994
6.63301
5.92878
5.22688
4.52686
3.82835
3.131
2.43454
1.73872
1.04337
0.348324
8.75106
8.044
7.33748
6.63244
5.9292
5.22773
4.52785
3.82931
3.13186
2.43527
1.73933
1.04387
0.348768
8.7413
8.03892
7.33513
6.63165
5.92924
5.22817
4.52845
3.82993
3.13243
2.43577
1.73975
1.04424
0.349108
8.73582
8.03604
7.33376
6.63113
5.92919
5.22835
4.52873
3.83023
3.13272
2.43602
1.73997
1.04443
0.349293
8.67191
7.97038
7.27389
6.58003
5.88741
5.19522
4.50302
3.81062
3.11794
2.42499
1.73182
1.03859
0.345666
8.71968
8.00584
7.29979
6.59869
5.90069
5.20456
4.50954
3.81513
3.12106
2.42717
1.73338
1.03972
0.346258
8.75054
8.03009
7.31842
6.61275
5.91113
5.21222
4.51509
3.81912
3.12392
2.4292
1.73482
1.04066
0.346665
8.76612
8.04399
7.33017
6.6223
5.91868
5.21805
4.51952
3.82244
3.12638
2.431
1.73609
1.0415
0.347083
8.76932
8.04943
7.33619
6.62803
5.92371
5.22225
4.52291
3.82511
3.12843
2.43255
1.73723
1.04228
0.34756
8.76372
8.04878
7.33801
6.63087
5.92677
5.22513
4.52541
3.82719
3.1301
2.43386
1.73822
1.04302
0.348086
8.75317
8.04452
7.3372
6.63181
5.92846
5.22702
4.52722
3.82878
3.13143
2.43493
1.73907
1.04368
0.348621
8.74138
8.03899
7.3352
6.6317
5.92928
5.2282
4.52847
3.82994
3.13244
2.43577
1.73975
1.04424
0.349105
8.73158
8.03417
7.33319
6.63124
5.92961
5.22888
4.52925
3.83071
3.13312
2.43635
1.74023
1.04464
0.349472
8.72607
8.03142
7.332
6.6309
5.92971
5.22919
4.52963
3.83108
3.13346
2.43664
1.74048
1.04486
0.349673
8.66285
7.96399
7.26947
6.57705
5.88544
5.19394
4.50222
3.81013
3.11765
2.42483
1.73174
1.03857
0.345678
8.71212
8.00048
7.29607
6.59618
5.89902
5.20349
4.50886
3.81473
3.12083
2.42704
1.73333
1.03972
0.346289
8.744
8.02552
7.3153
6.61067
5.90978
5.21136
4.51457
3.81882
3.12376
2.42913
1.7348
1.04068
0.346721
8.76021
8.04
7.32753
6.62061
5.91763
5.21743
4.51917
3.82227
3.12631
2.43099
1.73612
1.04156
0.347166
8.76376
8.04586
7.33396
6.62669
5.92295
5.22185
4.52273
3.82506
3.12845
2.43261
1.73731
1.04238
0.34767
8.75831
8.04552
7.33613
6.62986
5.92629
5.22495
4.52541
3.82728
3.13023
2.43399
1.73835
1.04315
0.348224
8.7478
8.0415
7.33562
6.63108
5.92823
5.22705
4.52738
3.82899
3.13165
2.43513
1.73925
1.04384
0.348783
8.73599
8.03616
7.33386
6.63122
5.92925
5.2284
4.52876
3.83026
3.13273
2.43603
1.73997
1.04443
0.349287
8.72616
8.03147
7.33203
6.63093
5.92974
5.22921
4.52965
3.83109
3.13347
2.43665
1.74048
1.04486
0.349669
8.72064
8.02879
7.33094
6.63068
5.92992
5.22959
4.53008
3.83151
3.13384
2.43696
1.74075
1.04508
0.349878
8.66284
7.96398
7.26947
6.57704
5.88543
5.19393
4.50221
3.81013
3.11765
2.42482
1.73174
1.03857
0.345677
8.71211
8.00047
7.29607
6.59617
5.89902
5.20348
4.50886
3.81472
3.12083
2.42704
1.73333
1.03972
0.346289
8.744
8.02551
7.31529
6.61066
5.90977
5.21136
4.51456
3.81882
3.12375
2.42913
1.7348
1.04068
0.346721
8.76021
8.03999
7.32753
6.62061
5.91762
5.21742
4.51917
3.82226
3.1263
2.43099
1.73612
1.04156
0.347166
8.76376
8.04585
7.33396
6.62669
5.92294
5.22185
4.52273
3.82506
3.12845
2.43261
1.73731
1.04237
0.34767
8.75831
8.04551
7.33612
6.62985
5.92628
5.22495
4.52541
3.82727
3.13022
2.43399
1.73835
1.04314
0.348223
8.7478
8.0415
7.33561
6.63108
5.92822
5.22704
4.52737
3.82899
3.13165
2.43513
1.73925
1.04384
0.348782
8.73599
8.03616
7.33386
6.63121
5.92925
5.2284
4.52876
3.83025
3.13273
2.43602
1.73997
1.04443
0.349286
8.72616
8.03146
7.33203
6.63093
5.92973
5.22921
4.52965
3.83109
3.13347
2.43664
1.74048
1.04486
0.349669
8.72064
8.02878
7.33093
6.63068
5.92992
5.22958
4.53008
3.83151
3.13384
2.43696
1.74075
1.04508
0.349877
8.67188
7.97036
7.27386
6.58001
5.88739
5.1952
4.50301
3.81061
3.11794
2.42498
1.73181
1.03859
0.345665
8.71966
8.00582
7.29977
6.59868
5.90067
5.20455
4.50953
3.81512
3.12106
2.42716
1.73338
1.03972
0.346257
8.75052
8.03007
7.31841
6.61274
5.91112
5.2122
4.51507
3.81911
3.12391
2.4292
1.73481
1.04066
0.346664
8.7661
8.04398
7.33015
6.62229
5.91867
5.21804
4.51951
3.82243
3.12637
2.43099
1.73609
1.0415
0.347082
8.76931
8.04942
7.33618
6.62802
5.92369
5.22224
4.52289
3.8251
3.12842
2.43254
1.73722
1.04228
0.347558
8.76372
8.04877
7.33799
6.63086
5.92676
5.22511
4.5254
3.82718
3.13009
2.43385
1.73822
1.04301
0.348085
8.75317
8.04451
7.33719
6.63179
5.92845
5.227
4.52721
3.82877
3.13143
2.43493
1.73907
1.04368
0.34862
8.74139
8.03899
7.33519
6.63169
5.92926
5.22819
4.52846
3.82993
3.13243
2.43576
1.73975
1.04423
0.349103
8.73158
8.03416
7.33318
6.63123
5.92959
5.22887
4.52924
3.8307
3.13311
2.43634
1.74023
1.04464
0.349471
8.72607
8.03141
7.33199
6.63088
5.92969
5.22918
4.52962
3.83107
3.13345
2.43663
1.74048
1.04485
0.349671
8.68864
7.98219
7.28203
6.58553
5.89105
5.19756
4.5045
3.81152
3.11847
2.42527
1.73195
1.03864
0.345647
8.73359
8.01569
7.3066
6.6033
5.90373
5.20652
4.51076
3.81586
3.12148
2.42738
1.73347
1.03973
0.346201
8.76249
8.03844
7.32411
6.61653
5.91357
5.21374
4.516
3.81964
3.12418
2.42931
1.73483
1.04061
0.346561
8.77684
8.05122
7.33492
6.62533
5.92054
5.21914
4.52011
3.82272
3.12647
2.43099
1.73602
1.04139
0.346929
8.77935
8.05584
7.34015
6.63038
5.92501
5.2229
4.52316
3.82514
3.12834
2.4324
1.73706
1.0421
0.347355
8.77345
8.05458
7.3413
6.6326
5.92755
5.22535
4.52534
3.82697
3.12983
2.43358
1.73796
1.04277
0.347832
8.76282
8.04986
7.33992
6.63299
5.92876
5.22685
4.52684
3.82833
3.13099
2.43453
1.73871
1.04337
0.348321
8.75105
8.04399
7.33746
6.63242
5.92918
5.22771
4.52783
3.8293
3.13185
2.43526
1.73932
1.04387
0.348765
8.74129
8.03891
7.33512
6.63163
5.92922
5.22815
4.52843
3.82991
3.13242
2.43575
1.73974
1.04423
0.349105
8.73581
8.03603
7.33374
6.63111
5.92916
5.22833
4.52871
3.83021
3.1327
2.43601
1.73996
1.04443
0.34929
8.71068
7.99777
7.29281
6.59283
5.89588
5.20069
4.50647
3.81272
3.11917
2.42566
1.73215
1.03871
0.345635
8.75176
8.02857
7.31552
6.60933
5.90771
5.20907
4.51235
3.81682
3.12202
2.42767
1.73359
1.03975
0.346137
8.77788
8.04917
7.33141
6.62137
5.91669
5.21568
4.51716
3.82029
3.12451
2.42945
1.73485
1.04055
0.346434
8.79039
8.06032
7.34086
6.62909
5.92282
5.22044
4.52079
3.82303
3.12655
2.43094
1.73591
1.04124
0.346736
8.79183
8.06373
7.34496
6.63316
5.9265
5.22358
4.52337
3.82509
3.12816
2.43217
1.73681
1.04186
0.347095
8.78537
8.06156
7.34514
6.63451
5.9283
5.22545
4.5251
3.82658
3.1294
2.43316
1.73758
1.04243
0.347505
8.77452
8.05615
7.34296
6.63413
5.92886
5.22642
4.52618
3.82762
3.13032
2.43394
1.73821
1.04294
0.347932
8.76272
8.04977
7.33985
6.63293
5.92872
5.22683
4.52682
3.82832
3.13098
2.43452
1.73871
1.04337
0.348323
8.75298
8.04435
7.33705
6.63168
5.92836
5.22694
4.52716
3.82874
3.1314
2.43491
1.73906
1.04368
0.348623
8.74751
8.04128
7.33542
6.63092
5.9281
5.22695
4.5273
3.82893
3.13161
2.43511
1.73924
1.04384
0.348788
8.73494
8.01496
7.30472
6.6009
5.90123
5.20415
4.50865
3.81406
3.11996
2.42611
1.73238
1.03881
0.345644
8.77139
8.04248
7.32514
6.61582
5.91198
5.2118
4.51404
3.81782
3.12258
2.42796
1.73372
1.03977
0.346081
8.79402
8.06038
7.33899
6.62635
5.91986
5.21762
4.51828
3.82089
3.12479
2.42954
1.73483
1.04048
0.346309
8.80411
8.06942
7.3467
6.63269
5.92493
5.22159
4.52133
3.82321
3.12653
2.43082
1.73574
1.04105
0.346537
8.80397
8.07121
7.34934
6.63553
5.92762
5.22396
4.52333
3.82484
3.12782
2.43182
1.73648
1.04156
0.346819
8.7966
8.06781
7.34829
6.63579
5.92852
5.22511
4.5245
3.82591
3.12875
2.43258
1.73709
1.04202
0.347153
8.78527
8.06148
7.34509
6.63446
5.92827
5.22543
4.52508
3.82657
3.12939
2.43315
1.73758
1.04243
0.347507
8.77325
8.05441
7.34117
6.6325
5.92748
5.2253
4.5253
3.82695
3.12981
2.43356
1.73795
1.04277
0.347835
8.76343
8.04853
7.3378
6.63071
5.92665
5.22503
4.52534
3.82714
3.13006
2.43383
1.73821
1.04301
0.34809
8.75793
8.04521
7.33587
6.62966
5.92613
5.22483
4.52532
3.82721
3.13018
2.43396
1.73834
1.04314
0.34823
8.75826
8.03152
7.31621
6.60869
5.90639
5.20749
4.51075
3.81534
3.12072
2.42654
1.73262
1.03894
0.345687
8.78953
8.05529
7.33396
6.62173
5.91583
5.21424
4.51552
3.81868
3.12305
2.42819
1.73382
1.03979
0.34605
8.80802
8.06999
7.34538
6.63046
5.92239
5.2191
4.51908
3.82127
3.12492
2.42953
1.73476
1.04038
0.346207
8.81502
8.07642
7.35099
6.63515
5.92621
5.22213
4.52144
3.82308
3.1263
2.43056
1.73549
1.04084
0.346363
8.81271
8.07615
7.35183
6.63652
5.92774
5.22362
4.52278
3.82422
3.12723
2.4313
1.73605
1.04122
0.346567
8.80389
8.07114
7.34929
6.6355
5.9276
5.22394
4.52332
3.82483
3.12782
2.43182
1.73648
1.04156
0.346821
8.79164
8.06359
7.34485
6.63308
5.92644
5.22355
4.52335
3.82507
3.12815
2.43216
1.73681
1.04186
0.347098
8.77907
8.05561
7.33998
6.63025
5.92491
5.22283
4.52311
3.8251
3.12832
2.43239
1.73705
1.0421
0.34736
8.76893
8.04911
7.33593
6.62783
5.92356
5.22213
4.52282
3.82504
3.12838
2.43252
1.73721
1.04228
0.347565
8.76328
8.04548
7.33366
6.62646
5.92276
5.22171
4.52263
3.82499
3.1284
2.43258
1.73729
1.04237
0.347678
8.77791
8.04549
7.32591
6.61527
5.91074
5.21029
4.51251
3.81641
3.12134
2.4269
1.73284
1.03908
0.34577
8.80344
8.06503
7.34057
6.62609
5.91861
5.21594
4.51651
3.81922
3.12331
2.42829
1.73385
1.0398
0.346053
8.81707
8.07595
7.34914
6.63269
5.92361
5.21967
4.51926
3.82123
3.12478
2.42935
1.73459
1.04026
0.346145
8.8202
8.07922
7.35224
6.63546
5.92597
5.22163
4.52084
3.82248
3.12575
2.43009
1.73513
1.04058
0.346233
8.81495
8.07637
7.35096
6.63513
5.9262
5.22212
4.52144
3.82308
3.1263
2.43056
1.7355
1.04084
0.346365
8.80396
8.06931
7.34663
6.63264
5.92489
5.22156
4.52132
3.8232
3.12652
2.43082
1.73575
1.04106
0.346541
8.79014
8.06014
7.34073
6.62899
5.92275
5.2204
4.52076
3.82301
3.12654
2.43094
1.73591
1.04124
0.346742
8.77648
8.05095
7.33471
6.62518
5.92043
5.21906
4.52005
3.82269
3.12645
2.43098
1.73602
1.04139
0.346936
8.76565
8.04362
7.32988
6.62208
5.91851
5.21793
4.51943
3.82238
3.12633
2.43097
1.73608
1.0415
0.347089
8.75966
8.03957
7.32719
6.62035
5.91743
5.21728
4.51906
3.82219
3.12625
2.43096
1.73611
1.04155
0.347175
8.79191
8.05544
7.33278
6.61991
5.91379
5.21224
4.51371
3.81712
3.12176
2.42714
1.733
1.03922
0.345889
8.81085
8.07001
7.34378
6.62806
5.91974
5.21652
4.51675
3.81926
3.12326
2.4282
1.73377
1.03976
0.346085
8.81869
8.07645
7.34896
6.63214
5.92289
5.21893
4.51856
3.82061
3.12425
2.42893
1.73428
1.04007
0.346119
8.81704
8.07593
7.34913
6.63268
5.92361
5.21967
4.51927
3.82124
3.12478
2.42936
1.7346
1.04026
0.346147
8.80793
8.06992
7.34534
6.63043
5.92238
5.21909
4.51908
3.82127
3.12493
2.42954
1.73477
1.04039
0.346212
8.79384
8.06025
7.33891
6.62629
5.91982
5.2176
4.51827
3.82089
3.1248
2.42955
1.73484
1.04048
0.346315
8.77759
8.04896
7.33127
6.62127
5.91662
5.21564
4.51713
3.82027
3.12451
2.42945
1.73485
1.04056
0.346442
8.7621
8.03814
7.3239
6.61638
5.91347
5.21367
4.51595
3.81961
3.12417
2.42931
1.73483
1.04062
0.34657
8.75002
8.02969
7.31812
6.61252
5.91096
5.21209
4.515
3.81906
3.12388
2.42918
1.73481
1.04066
0.346673
8.7434
8.02505
7.31494
6.6104
5.90958
5.21121
4.51446
3.81875
3.12371
2.42911
1.73479
1.04069
0.346731
8.7991
8.06047
7.33621
6.62216
5.91523
5.21312
4.51422
3.8174
3.1219
2.42721
1.73306
1.03931
0.346021
8.80995
8.06889
7.34261
6.62695
5.91875
5.21567
4.51605
3.81869
3.12281
2.42786
1.73352
1.03963
0.346115
8.81085
8.07001
7.34379
6.62807
5.91975
5.21653
4.51676
3.81927
3.12327
2.42821
1.73377
1.03977
0.346088
8.80342
8.06502
7.34058
6.6261
5.91863
5.21595
4.51652
3.81923
3.12332
2.42831
1.73386
1.03981
0.346058
8.78944
8.05525
7.33393
6.62173
5.91584
5.21425
4.51553
3.8187
3.12307
2.4282
1.73383
1.0398
0.346058
8.77121
8.04237
7.32507
6.61578
5.91196
5.2118
4.51404
3.81783
3.1226
2.42797
1.73374
1.03978
0.346091
8.75147
8.02838
7.31539
6.60925
5.90766
5.20905
4.51234
3.81682
3.12203
2.42768
1.73361
1.03976
0.346148
8.73319
8.01541
7.3064
6.60316
5.90364
5.20646
4.51072
3.81585
3.12148
2.42739
1.73349
1.03974
0.346213
8.71914
8.00544
7.29949
6.59848
5.90053
5.20445
4.50946
3.81509
3.12104
2.42716
1.73339
1.03973
0.346269
8.71149
8.00001
7.29572
6.59591
5.89883
5.20335
4.50877
3.81467
3.1208
2.42703
1.73333
1.03973
0.346302
8.79862
8.05993
7.33567
6.62167
5.9148
5.21276
4.51393
3.81717
3.12172
2.42708
1.73297
1.03928
0.346085
8.79914
8.0605
7.33623
6.62218
5.91524
5.21313
4.51423
3.81741
3.12191
2.42722
1.73306
1.03932
0.346024
8.79196