# vtk DataFile Version 2.0
I need something to put here
ASCII

DATASET STRUCTURED_GRID
DIMENSIONS 14 11 21
POINTS 3234 float
2.700000 0.000000 0.000000
2.800000 0.000000 0.000000
2.900000 0.000000 0.000000
3.000000 0.000000 0.000000
3.100000 0.000000 0.000000
3.200000 0.000000 0.000000
3.300000 0.000000 0.000000
3.400000 0.000000 0.000000
3.500000 0.000000 0.000000
3.600000 0.000000 0.000000
3.700000 0.000000 0.000000
3.800000 0.000000 0.000000
3.900000 0.000000 0.000000
4.000000 0.000000 0.000000
2.700000 0.100000 0.000000
2.800000 0.100000 0.000000
2.900000 0.100000 0.000000
3.000000 0.100000 0.000000
3.100000 0.100000 0.000000
3.200000 0.100000 0.000000
3.300000 0.100000 0.000000
3.400000 0.100000 0.000000
3.500000 0.100000 0.000000
3.600000 0.100000 0.000000
3.700000 0.100000 0.000000
3.800000 0.100000 0.000000
3.900000 0.100000 0.000000
4.000000 0.100000 0.000000
2.700000 0.200000 0.000000
2.800000 0.200000 0.000000
2.900000 0.200000 0.000000
3.000000 0.200000 0.000000
3.100000 0.200000 0.000000
3.200000 0.200000 0.000000
3.300000 0.200000 0.000000
3.400000 0.200000 0.000000
3.500000 0.200000 0.000000
3.600000 0.200000 0.000000
3.700000 0.200000 0.000000
3.800000 0.200000 0.000000
3.900000 0.200000 0.000000
4.000000 0.200000 0.000000
2.700000 0.300000 0.000000
2.800000 0.300000 0.000000
2.900000 0.300000 0.000000
3.000000 0.300000 0.000000
3.100000 0.300000 0.000000
3.200000 0.300000 0.000000
3.300000 0.300000 0.000000
3.400000 0.300000 0.000000
3.500000 0.300000 0.000000
3.600000 0.300000 0.000000
3.700000 0.300000 0.000000
3.800000 0.300000 0.000000
3.900000 0.300000 0.000000
4.000000 0.300000 0.000000
2.700000 0.400000 0.000000
2.800000 0.400000 0.000000
2.900000 0.400000 0.000000
3.000000 0.400000 0.000000
3.100000 0.400000 0.000000
3.200000 0.400000 0.000000
3.300000 0.400000 0.000000
3.400000 0.400000 0.000000
3.500000 0.400000 0.000000
3.600000 0.400000 0.000000
3.700000 0.400000 0.000000
3.800000 0.400000 0.000000
3.900000 0.400000 0.000000
4.000000 0.400000 0.000000
2.700000 0.500000 0.000000
2.800000 0.500000 0.000000
2.900000 0.500000 0.000000
3.000000 0.500000 0.000000
3.100000 0.500000 0.000000
3.200000 0.500000 0.000000
3.300000 0.500000 0.000000
3.400000 0.500000 0.000000
3.500000 0.500000 0.000000
3.600000 0.500000 0.000000
3.700000 0.500000 0.000000
3.800000 0.500000 0.000000
3.900000 0.500000 0.000000
4.000000 0.500000 0.000000
2.700000 0.600000 0.000000
2.800000 0.600000 0.000000
2.900000 0.600000 0.000000
3.000000 0.600000 0.000000
3.100000 0.600000 0.000000
3.200000 0.600000 0.000000
3.300000 0.600000 0.000000
3.400000 0.600000 0.000000
3.500000 0.600000 0.000000
3.600000 0.600000 0.000000
3.700000 0.600000 0.000000
3.800000 0.600000 0.000000
3.900000 0.600000 0.000000
4.000000 0.600000 0.000000
2.700000 0.700000 0.000000
2.800000 0.700000 0.000000
2.900000 0.700000 0.000000
3.000000 0.700000 0.000000
3.100000 0.700000 0.000000
3.200000 0.700000 0.000000
3.300000 0.700000 0.000000
3.400000 0.700000 0.000000
3.500000 0.700000 0.000000
3.600000 0.700000 0.000000
3.700000 0.700000 0.000000
3.800000 0.700000 0.000000
3.900000 0.700000 0.000000
4.000000 0.700000 0.000000
2.700000 0.800000 0.000000
2.800000 0.800000 0.000000
2.900000 0.800000 0.000000
3.000000 0.800000 0.000000
3.100000 0.800000 0.000000
3.200000 0.800000 0.000000
3.300000 0.800000 0.000000
3.400000 0.800000 0.000000
3.500000 0.800000 0.000000
3.600000 0.800000 0.000000
3.700000 0.800000 0.000000
3.800000 0.800000 0.000000
3.900000 0.800000 0.000000
4.000000 0.800000 0.000000
2.700000 0.900000 0.000000
2.800000 0.900000 0.000000
2.900000 0.900000 0.000000
3.000000 0.900000 0.000000
3.100000 0.900000 0.000000
3.200000 0.900000 0.000000
3.300000 0.900000 0.000000
3.400000 0.900000 0.000000
3.500000 0.900000 0.000000
3.600000 0.900000 0.000000
3.700000 0.900000 0.000000
3.800000 0.900000 0.000000
3.900000 0.900000 0.000000
4.000000 0.900000 0.000000
2.700000 1.000000 0.000000
2.800000 1.000000 0.000000
2.900000 1.000000 0.000000
3.000000 1.000000 0.000000
3.100000 1.000000 0.000000
3.200000 1.000000 0.000000
3.300000 1.000000 0.000000
3.400000 1.000000 0.000000
3.500000 1.000000 0.000000
3.600000 1.000000 0.000000
3.700000 1.000000 0.000000
3.800000 1.000000 0.000000
3.900000 1.000000 0.000000
4.000000 1.000000 0.000000
2.700000 0.000000 0.100000
2.800000 0.000000 0.100000
2.900000 0.000000 0.100000
3.000000 0.000000 0.100000
3.100000 0.000000 0.100000
3.200000 0.000000 0.100000
3.300000 0.000000 0.100000
3.400000 0.000000 0.100000
3.500000 0.000000 0.100000
3.600000 0.000000 0.100000
3.700000 0.000000 0.100000
3.800000 0.000000 0.100000
3.900000 0.000000 0.100000
4.000000 0.000000 0.100000
2.700000 0.100000 0.100000
2.800000 0.100000 0.100000
2.900000 0.100000 0.100000
3.000000 0.100000 0.100000
3.100000 0.100000 0.100000
3.200000 0.100000 0.100000
3.300000 0.100000 0.100000
3.400000 0.100000 0.100000
3.500000 0.100000 0.100000
3.600000 0.100000 0.100000
3.700000 0.100000 0.100000
3.800000 0.100000 0.100000
3.900000 0.100000 0.100000
4.000000 0.100000 0.100000
2.700000 0.200000 0.100000
2.800000 0.200000 0.100000
2.900000 0.200000 0.100000
3.000000 0.200000 0.100000
3.100000 0.200000 0.100000
3.200000 0.200000 0.100000
3.300000 0.200000 0.100000
3.400000 0.200000 0.100000
3.500000 0.200000 0.100000
3.600000 0.200000 0.100000
3.700000 0.200000 0.100000
3.800000 0.200000 0.100000
3.900000 0.200000 0.100000
4.000000 0.200000 0.100000
2.700000 0.300000 0.100000
2.800000 0.300000 0.100000
2.900000 0.300000 0.100000
3.000000 0.300000 0.100000
3.100000 0.300000 0.100000
3.200000 0.300000 0.100000
3.300000 0.300000 0.100000
3.400000 0.300000 0.100000
3.500000 0.300000 0.100000
3.600000 0.300000 0.100000
3.700000 0.300000 0.100000
3.800000 0.300000 0.100000
3.900000 0.300000 0.100000
4.000000 0.300000 0.100000
2.700000 0.400000 0.100000
2.800000 0.400000 0.100000
2.900000 0.400000 0.100000
3.000000 0.400000 0.100000
3.100000 0.400000 0.100000
3.200000 0.400000 0.100000
3.300000 0.400000 0.100000
3.400000 0.400000 0.100000
3.500000 0.400000 0.100000
3.600000 0.400000 0.100000
3.700000 0.400000 0.100000
3.800000 0.400000 0.100000
3.900000 0.400000 0.100000
4.000000 0.400000 0.100000
2.700000 0.500000 0.100000
2.800000 0.500000 0.100000
2.900000 0.500000 0.100000
3.000000 0.500000 0.100000
3.100000 0.500000 0.100000
3.200000 0.500000 0.100000
3.300000 0.500000 0.100000
3.400000 0.500000 0.100000
3.500000 0.500000 0.100000
3.600000 0.500000 0.100000
3.700000 0.500000 0.100000
3.800000 0.500000 0.100000
3.900000 0.500000 0.100000
4.000000 0.500000 0.100000
2.700000 0.600000 0.100000
2.800000 0.600000 0.100000
2.900000 0.600000 0.100000
3.000000 0.600000 0.100000
3.100000 0.600000 0.100000
3.200000 0.600000 0.100000
3.300000 0.600000 0.100000
3.400000 0.600000 0.100000
3.500000 0.600000 0.100000
3.600000 0.600000 0.100000
3.700000 0.600000 0.100000
3.800000 0.600000 0.100000
3.900000 0.600000 0.100000
4.000000 0.600000 0.100000
2.700000 0.700000 0.100000
2.800000 0.700000 0.100000
2.900000 0.700000 0.100000
3.000000 0.700000 0.100000
3.100000 0.700000 0.100000
3.200000 0.700000 0.100000
3.300000 0.700000 0.100000
3.400000 0.700000 0.100000
3.500000 0.700000 0.100000
3.600000 0.700000 0.100000
3.700000 0.700000 0.100000
3.800000 0.700000 0.100000
3.900000 0.700000 0.100000
4.000000 0.700000 0.100000
2.700000 0.800000 0.100000
2.800000 0.800000 0.100000
2.900000 0.800000 0.100000
3.000000 0.800000 0.100000
3.100000 0.800000 0.100000
3.200000 0.800000 0.100000
3.300000 0.800000 0.100000
3.400000 0.800000 0.100000
3.500000 0.800000 0.100000
3.600000 0.800000 0.100000
3.700000 0.800000 0.100000
3.800000 0.800000 0.100000
3.900000 0.800000 0.100000
4.000000 0.800000 0.100000
2.700000 0.900000 0.100000
2.800000 0.900000 0.100000
2.900000 0.900000 0.100000
3.000000 0.900000 0.100000
3.100000 0.900000 0.100000
3.200000 0.900000 0.100000
3.300000 0.900000 0.100000
3.400000 0.900000 0.100000
3.500000 0.900000 0.100000
3.600000 0.900000 0.100000
3.700000 0.900000 0.100000
3.800000 0.900000 0.100000
3.900000 0.900000 0.100000
4.000000 0.900000 0.100000
2.700000 1.000000 0.100000
2.800000 1.000000 0.100000
2.900000 1.000000 0.100000
3.000000 1.000000 0.100000
3.100000 1.000000 0.100000
3.200000 1.000000 0.100000
3.300000 1.000000 0.100000
3.400000 1.000000 0.100000
3.500000 1.000000 0.100000
3.600000 1.000000 0.100000
3.700000 1.000000 0.100000
3.800000 1.000000 0.100000
3.900000 1.000000 0.100000
4.000000 1.000000 0.100000
2.700000 0.000000 0.200000
2.800000 0.000000 0.200000
2.900000 0.000000 0.200000
3.000000 0.000000 0.200000
3.100000 0.000000 0.200000
3.200000 0.000000 0.200000
3.300000 0.000000 0.200000
3.400000 0.000000 0.200000
3.500000 0.000000 0.200000
3.600000 0.000000 0.200000
3.700000 0.000000 0.200000
3.800000 0.000000 0.200000
3.900000 0.000000 0.200000
4.000000 0.000000 0.200000
2.700000 0.100000 0.200000
2.800000 0.100000 0.200000
2.900000 0.100000 0.200000
3.000000 0.100000 0.200000
3.100000 0.100000 0.200000
3.200000 0.100000 0.200000
3.300000 0.100000 0.200000
3.400000 0.100000 0.200000
3.500000 0.100000 0.200000
3.600000 0.100000 0.200000
3.700000 0.100000 0.200000
3.800000 0.100000 0.200000
3.900000 0.100000 0.200000
4.000000 0.100000 0.200000
2.700000 0.200000 0.200000
2.800000 0.200000 0.200000
2.900000 0.200000 0.200000
3.000000 0.200000 0.200000
3.100000 0.200000 0.200000
3.200000 0.200000 0.200000
3.300000 0.200000 0.200000
3.400000 0.200000 0.200000
3.500000 0.200000 0.200000
3.600000 0.200000 0.200000
3.700000 0.200000 0.200000
3.800000 0.200000 0.200000
3.900000 0.200000 0.200000
4.000000 0.200000 0.200000
2.700000 0.300000 0.200000
2.800000 0.300000 0.200000
2.900000 0.300000 0.200000
3.000000 0.300000 0.200000
3.100000 0.300000 0.200000
3.200000 0.300000 0.200000
3.300000 0.300000 0.200000
3.400000 0.300000 0.200000
3.500000 0.300000 0.200000
3.600000 0.300000 0.200000
3.700000 0.300000 0.200000
3.800000 0.300000 0.200000
3.900000 0.300000 0.200000
4.000000 0.300000 0.200000
2.700000 0.400000 0.200000
[...]
CELL_DATA 2600
SCALARS pressure float 1
LOOKUP_TABLE default
8.63177
7.92929
7.2319
6.53805
5.84662
5.15681
4.46805
3.77995
3.09226
2.40482
1.71753
1.03036
0.343349
8.63207
7.92958
7.23216
6.53827
5.84681
5.15696
4.46817
3.78004
3.09233
2.40487
1.71756
1.03038
0.343331
8.62962
7.92791
7.23105
6.53757
5.84638
5.15671
4.46803
3.77998
3.09231
2.40486
1.71756
1.03036
0.343292
8.62474
7.92452
7.22876
6.53605
5.84541
5.15611
4.46767
3.77978
3.0922
2.40481
1.71752
1.03032
0.343259
8.61785
7.91972
7.22549
6.53388
5.844
5.15522
4.46713
3.77946
3.09202
2.40471
1.71747
1.03029
0.343238
8.60968
7.91403
7.2216
6.53129
5.84231
5.15415
4.46648
3.77907
3.09181
2.4046
1.71741
1.03026
0.343231
8.60118
7.90811
7.21757
6.5286
5.84056
5.15304
4.46579
3.77867
3.09158
2.40448
1.71735
1.03024
0.343234
8.59346
7.90275
7.21392
6.52616
5.83897
5.15203
4.46517
3.7783
3.09137
2.40437
1.7173
1.03023
0.343242
8.5876
7.89868
7.21115
6.52432
5.83777
5.15127
4.4647
3.77802
3.09121
2.40428
1.71727
1.03022
0.343252
8.58444
7.89648
7.20966
6.52333
5.83712
5.15085
4.46444
3.77786
3.09112
2.40424
1.71725
1.03022
0.343258
8.63199
7.92952
7.23211
6.53824
5.84679
5.15695
4.46816
3.78003
3.09232
2.40486
1.71756
1.03037
0.343329
8.63614
7.93268
7.23448
6.53998
5.84805
5.15785
4.46879
3.78048
3.09264
2.40508
1.71771
1.03048
0.343359
8.63667
7.93324
7.23501
6.54047
5.84846
5.15819
4.46907
3.7807
3.09281
2.40521
1.7178
1.03053
0.343353
8.63418
7.93163
7.23402
6.53989
5.84816
5.15806
4.46904
3.78072
3.09285
2.40526
1.71785
1.03055
0.343347
8.62933
7.92832
7.23182
6.53848
5.84729
5.15755
4.46876
3.78059
3.0928
2.40525
1.71786
1.03056
0.343351
8.62294
7.9239
7.22884
6.53652
5.84604
5.15678
4.46831
3.78034
3.09268
2.4052
1.71784
1.03057
0.343367
8.61601
7.91909
7.22558
6.53436
5.84465
5.15591
4.46779
3.78004
3.09252
2.40513
1.71782
1.03057
0.34339
8.60959
7.91463
7.22254
6.53234
5.84334
5.15509
4.46729
3.77975
3.09236
2.40505
1.71779
1.03057
0.343416
8.60465
7.9112
7.22021
6.53079
5.84233
5.15445
4.4669
3.77952
3.09224
2.40499
1.71777
1.03058
0.343437
8.60198
7.90934
7.21895
6.52995
5.84178
5.1541
4.46668
3.7794
3.09217
2.40496
1.71776
1.03058
0.343449
8.62947
7.92779
7.23096
6.5375
5.84632
5.15667
4.468
3.77995
3.09229
2.40485
1.71754
1.03035
0.343287
8.63662
7.9332
7.23498
6.54043
5.84844
5.15817
4.46906
3.78069
3.0928
2.4052
1.7178
1.03052
0.34335
8.63974
7.93571
7.23696
6.54197
5.84961
5.15905
4.46971
3.78117
3.09315
2.40546
1.71798
1.03063
0.343364
8.6394
7.93573
7.23718
6.54228
5.84995
5.15938
4.47001
3.78142
3.09335
2.40562
1.7181
1.0307
0.343376
8.63634
7.93378
7.236
6.54163
5.84963
5.15926
4.47
3.78148
3.09344
2.4057
1.71817
1.03075
0.343402
8.63147
7.93052
7.23389
6.54031
5.84884
5.15882
4.46978
3.78139
3.09343
2.40573
1.71821
1.0308
0.343441
8.6258
7.92667
7.23134
6.53867
5.84783
5.15823
4.46945
3.78123
3.09336
2.40572
1.71823
1.03083
0.343487
8.62037
7.92296
7.22887
6.53707
5.84682
5.15761
4.4691
3.78104
3.09328
2.4057
1.71824
1.03086
0.343534
8.61614
7.92007
7.22693
6.5358
5.84602
5.15712
4.46882
3.78089
3.0932
2.40567
1.71824
1.03088
0.343571
8.61383
7.91848
7.22587
6.53511
5.84557
5.15685
4.46866
3.7808
3.09316
2.40565
1.71824
1.03089
0.343591
8.62455
7.92436
7.22862
6.53594
5.84532
5.15604
4.46762
3.77973
3.09216
2.40478
1.7175
1.03031
0.343249
8.63412
7.93156
7.23396
6.53983
5.84811
5.15802
4.46901
3.7807
3.09283
2.40524
1.71783
1.03054
0.343342
8.6394
7.93571
7.23716
6.54226
5.84993
5.15936
4.46999
3.78141
3.09334
2.40561
1.71809
1.0307
0.343374
8.64087
7.93714
7.23845
6.54338
5.85086
5.16012
4.47059
3.78187
3.0937
2.40588
1.71828
1.03081
0.343406
8.6393
7.93637
7.23819
6.54341
5.85105
5.16037
4.47086
3.78212
3.09392
2.40606
1.71842
1.03091
0.343454
8.63563
7.9341
7.23685
6.54269
5.85071
5.16027
4.47088
3.78221
3.09403
2.40617
1.71852
1.03099
0.343517
8.63092
7.93105
7.23494
6.54155
5.85007
5.15995
4.47075
3.7822
3.09407
2.40624
1.71859
1.03106
0.343589
8.62623
7.92796
7.23297
6.54033
5.84936
5.15956
4.47056
3.78213
3.09407
2.40627
1.71864
1.03112
0.343657
8.62249
7.92549
7.23138
6.53934
5.84877
5.15922
4.47039
3.78206
3.09406
2.40629
1.71868
1.03116
0.343711
8.62042
7.92411
7.23049
6.53879
5.84843
5.15903
4.47029
3.78201
3.09404
2.40629
1.71869
1.03119
0.34374
8.61769
7.91956
7.22534
6.53375
5.84389
5.15513
4.46706
3.7794
3.09197
2.40467
1.71744
1.03027
0.343224
8.62931
7.92827
7.23176
6.53841
5.84723
5.15749
4.46871
3.78054
3.09276
2.40522
1.71783
1.03054
0.343343
8.63639
7.93379
7.23599
6.5416
5.8496
5.15923
4.46998
3.78145
3.09342
2.40569
1.71815
1.03074
0.343397
8.63935
7.9364
7.2382
6.54341
5.85104
5.16036
4.47085
3.78212
3.09391
2.40605
1.71841
1.0309
0.343452
8.63897
7.93663
7.23873
6.54407
5.8517
5.16097
4.47137
3.78255
3.09426
2.40633
1.71862
1.03104
0.343524
8.63623
7.93516
7.23807
6.54388
5.85178
5.16118
4.47163
3.78281
3.0945
2.40653
1.71878
1.03117
0.343613
8.63222
7.93277
7.23672
6.5432
5.85151
5.16114
4.47171
3.78295
3.09465
2.40667
1.71891
1.03128
0.34371
8.62803
7.93018
7.23519
6.54235
5.85108
5.16097
4.47169
3.783
3.09474
2.40677
1.719
1.03137
0.343801
8.62462
7.92804
7.23391
6.54161
5.85069
5.16079
4.47163
3.78302
3.09479
2.40683
1.71907
1.03143
0.343872
8.62271
7.92683
7.23317
6.54118
5.85046
5.16068
4.47159
3.78302
3.09481
2.40686
1.7191
1.03147
0.343911
8.60959
7.9139
7.22147
6.53116
5.84219
5.15405
4.46639
3.779
3.09174
2.40454
1.71737
1.03023
0.343213
8.62301
7.9239
7.22881
6.53647
5.84598
5.15672
4.46825
3.78029
3.09263
2.40516
1.71781
1.03054
0.343355
8.63161
7.93058
7.23391
6.5403
5.84882
5.1588
4.46975
3.78136
3.0934
2.40571
1.71819
1.03078
0.343433
8.63578
7.93418
7.23689
6.5427
5.85071
5.16026
4.47087
3.7822
3.09402
2.40616
1.71851
1.03098
0.343512
8.63632
7.93522
7.2381
6.5439
5.85179
5.16118
4.47163
3.78281
3.0945
2.40652
1.71878
1.03116
0.34361
8.63426
7.93442
7.23802
6.54419
5.85225
5.16169
4.47211
3.78323
3.09485
2.40681
1.719
1.03133
0.343726
8.63074
7.93255
7.23716
6.54392
5.8523
5.1619
4.47238
3.78351
3.09511
2.40703
1.71918
1.03148
0.343849
8.62689
7.93035
7.23601
6.5434
5.85215
5.16194
4.47252
3.78369
3.09529
2.4072
1.71932
1.0316
0.343963
8.62368
7.92849
7.23498
6.54289
5.85195
5.16192
4.47259
3.78379
3.0954
2.4073
1.71942
1.03169
0.344051
8.62188
7.92741
7.23438
6.54259
5.85182
5.16188
4.47261
3.78384
3.09545
2.40736
1.71947
1.03174
0.344098
8.60121
7.90806
7.21748
6.52849
5.84045
5.15294
4.4657
3.77859
3.09151
2.40442
1.7173
1.0302
0.343212
8.61619
7.91916
7.22558
6.53433
5.8446
5.15585
4.46773
3.77999
3.09247
2.40509
1.71778
1.03054
0.343376
8.62606
7.92681
7.23141
6.53869
5.84782
5.1582
4.46942
3.7812
3.09333
2.4057
1.71821
1.03081
0.343477
8.63119
7.9312
7.23503
6.54159
5.85009
5.15995
4.47074
3.78218
3.09406
2.40622
1.71858
1.03105
0.343581
8.63243
7.9329
7.2368
6.54324
5.85153
5.16114
4.47171
3.78294
3.09464
2.40667
1.7189
1.03127
0.343704
8.63086
7.93262
7.2372
6.54395
5.85232
5.16191
4.47239
3.78351
3.09511
2.40703
1.71918
1.03147
0.343846
8.62767
7.93116
7.23675
6.54403
5.85267
5.16235
4.47284
3.78393
3.09546
2.40732
1.71941
1.03166
0.343994
8.62402
7.92928
7.23592
6.5438
5.85275
5.16259
4.47313
3.78422
3.09572
2.40754
1.7196
1.03181
0.344129
8.62094
7.92763
7.23512
6.5435
5.85273
5.1627
4.4733
3.7844
3.09589
2.4077
1.71973
1.03192
0.344232
8.61919
7.92666
7.23464
6.5433
5.85269
5.16274
4.47338
3.78449
3.09598
2.40777
1.71979
1.03198
0.344288
8.59362
7.90278
7.21388
6.52609
5.83888
5.15194
4.46508
3.77822
3.09129
2.4043
1.71725
1.03019
0.343218
8.6099
7.91478
7.2226
6.53235
5.84331
5.15504
4.46724
3.7797
3.09231
2.40501
1.71775
1.03054
0.343399
8.62076
7.92318
7.22899
6.53712
5.84683
5.1576
4.46908
3.78102
3.09325
2.40567
1.71821
1.03084
0.34352
8.62662
7.9282
7.23311
6.54041
5.8494
5.15957
4.47056
3.78212
3.09406
2.40626
1.71863
1.03111
0.343646
8.62837
7.93039
7.23532
6.54243
5.85113
5.16099
4.47169
3.783
3.09473
2.40676
1.719
1.03136
0.343793
8.62714
7.93051
7.23611
6.54346
5.85219
5.16196
4.47253
3.78369
3.09529
2.40719
1.71932
1.03159
0.343957
8.62415
7.92937
7.23597
6.54384
5.85278
5.1626
4.47314
3.78422
3.09572
2.40754
1.71959
1.03181
0.344126
8.62062
7.92773
7.2354
6.54384
5.85307
5.163
4.47355
3.7846
3.09605
2.40782
1.71982
1.03199
0.344279
8.6176
7.92624
7.23479
6.54372
5.85319
5.16323
4.47381
3.78485
3.09628
2.40801
1.71997
1.03212
0.344395
8.61588
7.92535
7.2344
6.54361
5.85322
5.16333
4.47394
3.78498
3.09639
2.4081
1.72005
1.03218
0.344457
8.58789
7.89879
7.21117
6.52428
5.8377
5.15119
4.46462
3.77794
3.09114
2.40422
1.71721
1.03017
0.343225
8.60509
7.91144
7.22033
6.53083
5.84233
5.15442
4.46686
3.77948
3.09219
2.40495
1.71773
1.03055
0.343419
8.61665
7.92037
7.22711
6.53589
5.84606
5.15713
4.4688
3.78087
3.09318
2.40564
1.71822
1.03086
0.343555
8.62301
7.92581
7.23158
6.53946
5.84883
5.15925
4.4704
3.78205
3.09404
2.40627
1.71866
1.03115
0.343698
8.62509
7.92834
7.23409
6.54173
5.85076
5.16083
4.47165
3.78302
3.09478
2.40683
1.71906
1.03142
0.343861
8.62406
7.92873
7.23514
6.54299
5.85201
5.16195
4.47261
3.7838
3.0954
2.4073
1.71942
1.03168
0.344042
8.6212
7.9278
7.23523
6.54358
5.85278
5.16273
4.47332
3.78441
3.0959
2.4077
1.71972
1.03192
0.344226
8.61774
7.92632
7.23485
6.54375
5.85321
5.16325
4.47382
3.78486
3.09628
2.40801
1.71997
1.03211
0.344392
8.61475
7.92494
7.23437
6.54375
5.85344
5.16356
4.47415
3.78516
3.09654
2.40822
1.72014
1.03226
0.344518
8.61304
7.92412
7.23405
6.54371
5.85353
5.16371
4.47431
3.78531
3.09667
2.40833
1.72024
1.03233
0.344585
8.58483
7.89668
7.20973
6.52333
5.83708
5.15079
4.46437
3.77779
3.09105
2.40417
1.71719
1.03017
0.343229
8.60252
7.90965
7.21912
6.53003
5.84181
5.15409
4.46666
3.77936
3.09212
2.40491
1.71772
1.03055
0.343429
8.61445
7.91886
7.2261
6.53524
5.84564
5.15688
4.46866
3.78079
3.09314
2.40563
1.71822
1.03087
0.343574
8.62105
7.92452
7.23075
6.53894
5.84852
5.15908
4.47031
3.78201
3.09404
2.40628
1.71868
1.03117
0.343725
8.6233
7.92722
7.23342
6.54134
5.85056
5.16074
4.47162
3.78303
3.09481
2.40686
1.71909
1.03146
0.343898
8.62237
7.92775
7.2346
6.54273
5.85191
5.16194
4.47264
3.78385
3.09546
2.40736
1.71947
1.03173
0.344087
8.61957
7.92693
7.23482
6.54342
5.85277
5.16279
4.47341
3.7845
3.09599
2.40777
1.71979
1.03197
0.344279
8.61614
7.92554
7.23453
6.54369
5.85328
5.16337
4.47396
3.78499
3.0964
2.4081
1.72005
1.03218
0.344452
8.61317
7.92422
7.23412
6.54375
5.85356
5.16373
4.47432
3.78532
3.09668
2.40833
1.72024
1.03233
0.344582
8.61147
7.92342
7.23384
6.54374
5.85368
5.1639
4.4745
3.78548
3.09682
2.40845
1.72033
1.03241
0.344653
8.58491
7.89674
7.20978
6.52336
5.8371
5.15081
4.46439
3.7778
3.09106
2.40418
1.71719
1.03017
0.343228
8.6026
7.90971
7.21916
6.53006
5.84183
5.15411
4.46667
3.77937
3.09213
2.40492
1.71772
1.03055
0.343428
8.61452
7.91892
7.22615
6.53527
5.84567
5.1569
4.46867
3.78079
3.09314
2.40563
1.71822
1.03087
0.343572
8.62113
7.92458
7.23079
6.53897
5.84855
5.1591
4.47032
3.78202
3.09404
2.40628
1.71868
1.03117
0.343723
8.62337
7.92728
7.23346
6.54137
5.85058
5.16075
4.47164
3.78304
3.09481
2.40686
1.71909
1.03146
0.343895
8.62244
7.92781
7.23465
6.54276
5.85194
5.16196
4.47265
3.78386
3.09546
2.40736
1.71947
1.03173
0.344084
8.61964
7.92699
7.23486
6.54345
5.85279
5.16281
4.47342
3.78451
3.09599
2.40778
1.71979
1.03197
0.344276
8.61621
7.92559
7.23457
6.54372
5.8533
5.16339
4.47397
3.785
3.0964
2.40811
1.72005
1.03218
0.344448
8.61324
7.92428
7.23416
6.54379
5.85358
5.16375
4.47433
3.78533
3.09668
2.40833
1.72023
1.03233
0.344579
8.61155
7.92348
7.23388
6.54378
5.8537
5.16392
4.47451
3.78549
3.09682
2.40845
1.72033
1.03241
0.344649
8.58812
7.89897
7.21131
6.52438
5.83778
5.15124
4.46465
3.77796
3.09115
2.40422
1.71721
1.03017
0.343222
8.60532
7.91161
7.22046
6.53093
5.8424
5.15447
4.46689
3.7795
3.0922
2.40495
1.71773
1.03054
0.343415
8.61687
7.92054
7.22724
6.53599
5.84613
5.15718
4.46884
3.78089
3.09319
2.40565
1.71822
1.03086
0.34355
8.62323
7.92598
7.23171
6.53956
5.8489
5.1593
4.47043
3.78207
3.09406
2.40628
1.71866
1.03115
0.343692
8.6253
7.92851
7.23422
6.54182
5.85083
5.16088
4.47168
3.78304
3.0948
2.40683
1.71906
1.03142
0.343854
8.62428
7.9289
7.23527
6.54309
5.85208
5.162
4.47264
3.78382
3.09541
2.4073
1.71942
1.03168
0.344034
8.62142
7.92797
7.23536
6.54367
5.85285
5.16278
4.47335
3.78443
3.09591
2.4077
1.71972
1.03191
0.344217
8.61796
7.92649
7.23498
6.54385
5.85328
5.16329
4.47385
3.78488
3.09629
2.40801
1.71997
1.03211
0.344382
8.61498
7.92512
7.2345
6.54385
5.8535
5.16361
4.47418
3.78518
3.09655
2.40822
1.72014
1.03225
0.344507
8.61328
7.9243
7.23418
6.5438
5.8536
5.16376
4.47434
3.78533
3.09668
2.40833
1.72023
1.03233
0.344575
8.594
7.90307
7.2141
6.52625
5.839
5.15202
4.46514
3.77825
3.09131
2.40431
1.71725
1.03018
0.343212
8.61026
7.91506
7.22282
6.53251
5.84343
5.15513
4.46729
3.77974
3.09233
2.40502
1.71775
1.03054
0.343393
8.62112
7.92346
7.2292
6.53728
5.84695
5.15769
4.46914
3.78105
3.09327
2.40568
1.71822
1.03084
0.343512
8.62697
7.92847
7.23332
6.54057
5.84951
5.15965
4.47062
3.78215
3.09408
2.40627
1.71863
1.0311
0.343636
8.62872
7.93066
7.23553
6.54258
5.85124
5.16107
4.47175
3.78303
3.09475
2.40677
1.719
1.03135
0.343781
8.62749
7.93078
7.23631
6.54361
5.8523
5.16204
4.47258
3.78372
3.0953
2.4072
1.71932
1.03159
0.343944
8.62451
7.92964
7.23618
6.54399
5.85288
5.16268
4.47318
3.78425
3.09574
2.40755
1.71959
1.0318
0.344111
8.62099
7.928
7.23561
6.54399
5.85317
5.16307
4.4736
3.78463
3.09607
2.40782
1.71981
1.03198
0.344263
8.61797
7.92651
7.235
6.54387
5.85329
5.1633
4.47386
3.78488
3.09629
2.40801
1.71996
1.0321
0.344378
8.61626
7.92563
7.23461
6.54376
5.85333
5.1634
4.47398
3.785
3.0964
2.4081
1.72004
1.03217
0.344441
8.6017
7.90844
7.21777
6.52871
5.8406
5.15304
4.46577
3.77863
3.09153
2.40442
1.7173
1.0302
0.343204
8.61667
7.91953
7.22587
6.53454
5.84475
5.15596
4.4678
3.78003
3.0925
2.4051
1.71778
1.03054
0.343368
8.62653
7.92717
7.23169
6.5389
5.84797
5.15831
4.4695
3.78125
3.09336
2.40571
1.71821
1.03081
0.343466
8.63166
7.93156
7.2353
6.5418
5.85024
5.16005
4.47081
3.78223
3.09408
2.40623
1.71858
1.03104
0.343567
8.6329
7.93326
7.23708
6.54345
5.85167
5.16125
4.47178
3.78298
3.09467
2.40667
1.7189
1.03126
0.343689
8.63133
7.93298
7.23748
6.54415
5.85246
5.162
4.47245
3.78355
3.09513
2.40704
1.71917
1.03146
0.343828
8.62815
7.93152
7.23702
6.54423
5.85281
5.16245
4.4729
3.78396
3.09548
2.40732
1.7194
1.03164
0.343974
8.6245
7.92965
7.23619
6.544
5.85289
5.16268
4.47319
3.78425
3.09574
2.40755
1.71959
1.03179
0.344108
8.62143
7.928
7.23539
6.5437
5.85287
5.16279
4.47335
3.78443
3.09591
2.40769
1.71972
1.0319
0.34421
8.61969
7.92704
7.23491
6.5435
5.85282
5.16283
4.47343
3.78452
3.09599
2.40777
1.71978
1.03196
0.344265
8.61018
7.91436
7.22182
6.53141
5.84237
5.15417
4.46647
3.77905
3.09177
2.40455
1.71737
1.03022
0.343203
8.62359
7.92435
7.22915
6.53672
5.84616
5.15685
4.46834
3.78034
3.09266
2.40518
1.71781
1.03054
0.343345
8.63217
7.93102
7.23424
6.54055
5.849
5.15892
4.46984
3.78142
3.09343
2.40572
1.71819
1.03077
0.343419
8.63634
7.93461
7.23722
6.54294
5.85089
5.16038
4.47095
3.78225
3.09404
2.40617
1.71851
1.03097
0.343496
8.63688
7.93565
7.23843
6.54414
5.85196
5.1613
4.4717
3.78285
3.09452
2.40653
1.71877
1.03115
0.343591
8.63482
7.93485
7.23834
6.54443
5.85242
5.1618
4.47218
3.78327
3.09487
2.40681
1.71899
1.03131
0.343705
8.63131
7.93297
7.23748
6.54415
5.85247
5.16201
4.47245
3.78355
3.09512
2.40703
1.71917
1.03146
0.343826
8.62746
7.93078
7.23632
6.54362
5.85231
5.16205
4.47259
3.78372
3.0953
2.40719
1.71931
1.03158
0.343938
8.62427
7.92892
7.2353
6.54312
5.85211
5.16202
4.47264
3.78382
3.09541
2.4073
1.71941
1.03167
0.344024
8.62247
7.92786
7.2347
6.54281
5.85197
5.16198
4.47266
3.78386
3.09546
2.40735
1.71945
1.03171
0.344071
8.61835
7.92007
7.22572
6.53403
5.84408
5.15526
4.46714
3.77945
3.092
2.40468
1.71743
1.03025
0.343212
8.62995
7.92876
7.23213
6.53869
5.84742
5.15763
4.4688
3.7806
3.09279
2.40523
1.71783
1.03053
0.343331
8.63702
7.93428
7.23636
6.54187
5.84979
5.15937
4.47006
3.78151
3.09344
2.40569
1.71815
1.03073
0.343382
8.63997
7.93688
7.23856
6.54368
5.85123
5.16049
4.47093
3.78216
3.09393
2.40606
1.71841
1.03089
0.343433
8.63959
7.9371
7.23909
6.54432
5.85189
5.16109
4.47145
3.7826
3.09428
2.40633
1.71861
1.03103
0.343502
8.63685
7.93563
7.23842
6.54413
5.85196
5.1613
4.4717
3.78285
3.09451
2.40653
1.71877
1.03115
0.343588
8.63285
7.93324
7.23707
6.54344
5.85167
5.16124
4.47177
3.78298
3.09466
2.40667
1.71889
1.03125
0.343683
8.62867
7.93065
7.23554
6.54259
5.85124
5.16107
4.47175
3.78303
3.09474
2.40676
1.71898
1.03134
0.343773
8.62527
7.92852
7.23425
6.54185
5.85085
5.16089
4.47169
3.78304
3.09479
2.40682
1.71905
1.03141
0.343842
8.62338
7.92732
7.23352
6.54142
5.85062
5.16078
4.47165
3.78304
3.09481
2.40685
1.71908
1.03144
0.34388
8.62524
7.92489
7.22901
6.53623
5.84551
5.15617
4.4677
3.77977
3.09218
2.40478
1.71749
1.03029
0.343236
8.6348
7.93208
7.23434
6.54011
5.84831
5.15815
4.46909
3.78074
3.09285
2.40525
1.71782
1.03053
0.343328
8.64006
7.93622
7.23754
6.54254
5.85013
5.1595
4.47007
3.78145
3.09336
2.40561
1.71808
1.03068
0.343357
8.64152
7.93763
7.23882
6.54364
5.85105
5.16024
4.47066
3.78191
3.09371
2.40587
1.71827
1.0308
0.343386
8.63995
7.93686
7.23855
6.54367
5.85123
5.16049
4.47092
3.78216
3.09393
2.40605
1.7184
1.03089
0.343431
8.63628
7.93458
7.2372
6.54294
5.85088
5.16037
4.47094
3.78224
3.09403
2.40616
1.7185
1.03096
0.34349
8.63158
7.93153
7.23529
6.54179
5.85023
5.16004
4.4708
3.78221
3.09407
2.40622
1.71857
1.03103
0.343559
8.62689
7.92844
7.23332
6.54057
5.84951
5.15965
4.47061
3.78214
3.09406
2.40625
1.71861
1.03109
0.343625
8.62317
7.92598
7.23173
6.53958
5.84892
5.15931
4.47043
3.78206
3.09404
2.40626
1.71864
1.03113
0.343678
8.62111
7.92461
7.23084
6.53902
5.84858
5.15911
4.47033
3.78201
3.09402
2.40626
1.71865
1.03115
0.343706
8.63016
7.92831
7.23134
6.53777
5.84651
5.15679
4.46807
3.77999
3.09229
2.40484
1.71753
1.03033
0.343272
8.6373
7.93371
7.23536
6.54071
5.84863
5.1583
4.46913
3.78072
3.09281
2.4052
1.71778
1.03051
0.343336
8.64041
7.93621
7.23733
6.54224
5.84979
5.15917
4.46978
3.7812
3.09316
2.40545
1.71796
1.03061
0.343346
8.64005
7.93621
7.23753
6.54254
5.85012
5.15949
4.47006
3.78145
3.09335
2.4056
1.71807
1.03068
0.343355
8.63698
7.93426
7.23635
6.54186
5.84978
5.15935
4.47005
3.78149
3.09343
2.40568
1.71814
1.03072
0.343376
8.6321
7.93099
7.23422
6.54053
5.84898
5.1589
4.46982
3.7814
3.09341
2.4057
1.71817
1.03076
0.343411
8.62644
7.92713
7.23166
6.53888
5.84796
5.15829
4.46948
3.78122
3.09333
2.40568
1.71819
1.03079
0.343455
8.62102
7.92342
7.22919
6.53727
5.84694
5.15767
4.46912
3.78103
3.09324
2.40565
1.71819
1.03082
0.343499
8.6168
7.92053
7.22725
6.536
5.84613
5.15718
4.46883
3.78087
3.09316
2.40562
1.71819
1.03083
0.343534
8.61449
7.91894
7.22618
6.53531
5.84569
5.1569
4.46866
3.78077
3.09311
2.4056
1.71819
1.03084
0.343553
8.63266
7.93002
7.23248
6.5385
5.84696
5.15705
4.46822
3.78006
3.09232
2.40485
1.71753
1.03035
0.343314
8.6368
7.93317
7.23484
6.54024
5.84822
5.15796
4.46885
3.7805
3.09263
2.40507
1.71769
1.03046
0.343344
8.63731
7.93371
7.23536
6.5407
5.84862
5.15829
4.46912
3.78072
3.0928
2.40519
1.71778
1.0305
0.343333
8.63479
7.93208
7.23434
6.5401
5.8483
5.15814
4.46907
3.78073
3.09283
2.40523
1.71781
1.03052
0.343322
8.62992
7.92874
7.23212
6.53867
5.8474
5.1576
4.46877
3.78057
3.09277
2.40521
1.71781
1.03052
0.343322
8.62352
7.92431
7.22912
6.5367
5.84614
5.15682
4.46831
3.78031
3.09263
2.40514
1.71778
1.03051
0.343333
8.61659
7.91949
7.22584
6.53452
5.84473
5.15593
4.46777
3.78
3.09246
2.40506
1.71775
1.03051
0.343353
8.61017
7.91502
7.2228
6.53249
5.84341
5.1551
4.46726
3.7797
3.09229
2.40498
1.71772
1.03051
0.343375
8.60525
7.91159
7.22046
6.53093
5.84239
5.15445
4.46686
3.77946
3.09216
2.40491
1.71769
1.03051
0.343394
8.60258
7.90973
7.21919
6.53008
5.84184
5.1541
4.46664
3.77933
3.09209
2.40487
1.71767
1.03051
0.343405
8.63241
7.92977
7.23224
6.53829
5.84678
5.15691
4.4681
3.77997
3.09225
2.40479
1.7175
1.03034
0.343334
8.63268
7.93003
7.23248
6.5385
5.84696
5.15705
4.46821
3.78005
3.09232
2.40484
1.71753
1.03035
0.343312
8.63019
7.92832
7.23135
6.53776
5.8465
5.15678
4.46806
3.77997