# vtk DataFile Version 2.0
I need something to put here
ASCII

DATASET STRUCTURED_GRID
DIMENSIONS 41 21 21
POINTS 18081 float
0.000000 0.000000 0.000000
0.100000 0.000000 0.000000
0.200000 0.000000 0.000000
0.300000 0.000000 0.000000
0.400000 0.000000 0.000000
0.500000 0.000000 0.000000
0.600000 0.000000 0.000000
0.700000 0.000000 0.000000
0.800000 0.000000 0.000000
0.900000 0.000000 0.000000
1.000000 0.000000 0.000000
1.100000 0.000000 0.000000
1.200000 0.000000 0.000000
1.300000 0.000000 0.000000
1.400000 0.000000 0.000000
1.500000 0.000000 0.000000
1.600000 0.000000 0.000000
1.700000 0.000000 0.000000
1.800000 0.000000 0.000000
1.900000 0.000000 0.000000
2.000000 0.000000 0.000000
2.100000 0.000000 0.000000
2.200000 0.000000 0.000000
2.300000 0.000000 0.000000
2.400000 0.000000 0.000000
2.500000 0.000000 0.000000
2.600000 0.000000 0.000000
2.700000 0.000000 0.000000
2.800000 0.000000 0.000000
2.900000 0.000000 0.000000
3.000000 0.000000 0.000000
3.100000 0.000000 0.000000
3.200000 0.000000 0.000000
3.300000 0.000000 0.000000
3.400000 0.000000 0.000000
3.500000 0.000000 0.000000
3.600000 0.000000 0.000000
3.700000 0.000000 0.000000
3.800000 0.000000 0.000000
3.900000 0.000000 0.000000
4.000000 0.000000 0.000000
0.000000 0.100000 0.000000
0.100000 0.100000 0.000000
0.200000 0.100000 0.000000
0.300000 0.100000 0.000000
0.400000 0.100000 0.000000
0.500000 0.100000 0.000000
0.600000 0.100000 0.000000
0.700000 0.100000 0.000000
0.800000 0.100000 0.000000
0.900000 0.100000 0.000000
1.000000 0.100000 0.000000
1.100000 0.100000 0.000000
1.200000 0.100000 0.000000
1.300000 0.100000 0.000000
1.400000 0.100000 0.000000
1.500000 0.100000 0.000000
1.600000 0.100000 0.000000
1.700000 0.100000 0.000000
1.800000 0.100000 0.000000
1.900000 0.100000 0.000000
2.000000 0.100000 0.000000
2.100000 0.100000 0.000000
2.200000 0.100000 0.000000
2.300000 0.100000 0.000000
2.400000 0.100000 0.000000
2.500000 0.100000 0.000000
2.600000 0.100000 0.000000
2.700000 0.100000 0.000000
2.800000 0.100000 0.000000
2.900000 0.100000 0.000000
3.000000 0.100000 0.000000
3.100000 0.100000 0.000000
3.200000 0.100000 0.000000
3.300000 0.100000 0.000000
3.400000 0.100000 0.000000
3.500000 0.100000 0.000000
3.600000 0.100000 0.000000
3.700000 0.100000 0.000000
3.800000 0.100000 0.000000
3.900000 0.100000 0.000000
4.000000 0.100000 0.000000
0.000000 0.200000 0.000000
0.100000 0.200000 0.000000
0.200000 0.200000 0.000000
0.300000 0.200000 0.000000
0.400000 0.200000 0.000000
0.500000 0.200000 0.000000
0.600000 0.200000 0.000000
0.700000 0.200000 0.000000
0.800000 0.200000 0.000000
0.900000 0.200000 0.000000
1.000000 0.200000 0.000000
1.100000 0.200000 0.000000
1.200000 0.200000 0.000000
1.300000 0.200000 0.000000
1.400000 0.200000 0.000000
1.500000 0.200000 0.000000
1.600000 0.200000 0.000000
1.700000 0.200000 0.000000
1.800000 0.200000 0.000000
1.900000 0.200000 0.000000
2.000000 0.200000 0.000000
2.100000 0.200000 0.000000
2.200000 0.200000 0.000000
2.300000 0.200000 0.000000
2.400000 0.200000 0.000000
2.500000 0.200000 0.000000
2.600000 0.200000 0.000000
2.700000 0.200000 0.000000
2.800000 0.200000 0.000000
2.900000 0.200000 0.000000
3.000000 0.200000 0.000000
3.100000 0.200000 0.000000
3.200000 0.200000 0.000000
3.300000 0.200000 0.000000
3.400000 0.200000 0.000000
3.500000 0.200000 0.000000
3.600000 0.200000 0.000000
3.700000 0.200000 0.000000
3.800000 0.200000 0.000000
3.900000 0.200000 0.000000
4.000000 0.200000 0.000000
0.000000 0.300000 0.000000
0.100000 0.300000 0.000000
0.200000 0.300000 0.000000
0.300000 0.300000 0.000000
0.400000 0.300000 0.000000
0.500000 0.300000 0.000000
0.600000 0.300000 0.000000
0.700000 0.300000 0.000000
0.800000 0.300000 0.000000
0.900000 0.300000 0.000000
1.000000 0.300000 0.000000
1.100000 0.300000 0.000000
1.200000 0.300000 0.000000
1.300000 0.300000 0.000000
1.400000 0.300000 0.000000
1.500000 0.300000 0.000000
1.600000 0.300000 0.000000
1.700000 0.300000 0.000000
1.800000 0.300000 0.000000
1.900000 0.300000 0.000000
2.000000 0.300000 0.000000
2.100000 0.300000 0.000000
2.200000 0.300000 0.000000
2.300000 0.300000 0.000000
2.400000 0.300000 0.000000
2.500000 0.300000 0.000000
2.600000 0.300000 0.000000
2.700000 0.300000 0.000000
2.800000 0.300000 0.000000
2.900000 0.300000 0.000000
3.000000 0.300000 0.000000
3.100000 0.300000 0.000000
3.200000 0.300000 0.000000
3.300000 0.300000 0.000000
3.400000 0.300000 0.000000
3.500000 0.300000 0.000000
3.600000 0.300000 0.000000
3.700000 0.300000 0.000000
3.800000 0.300000 0.000000
3.900000 0.300000 0.000000
4.000000 0.300000 0.000000
0.000000 0.400000 0.000000
0.100000 0.400000 0.000000
0.200000 0.400000 0.000000
0.300000 0.400000 0.000000
0.400000 0.400000 0.000000
0.500000 0.400000 0.000000
0.600000 0.400000 0.000000
0.700000 0.400000 0.000000
0.800000 0.400000 0.000000
0.900000 0.400000 0.000000
1.000000 0.400000 0.000000
1.100000 0.400000 0.000000
1.200000 0.400000 0.000000
1.300000 0.400000 0.000000
1.400000 0.400000 0.000000
1.500000 0.400000 0.000000
1.600000 0.400000 0.000000
1.700000 0.400000 0.000000
1.800000 0.400000 0.000000
1.900000 0.400000 0.000000
2.000000 0.400000 0.000000
2.100000 0.400000 0.000000
2.200000 0.400000 0.000000
2.300000 0.400000 0.000000
2.400000 0.400000 0.000000
2.500000 0.400000 0.000000
2.600000 0.400000 0.000000
2.700000 0.400000 0.000000
2.800000 0.400000 0.000000
2.900000 0.400000 0.000000
3.000000 0.400000 0.000000
3.100000 0.400000 0.000000
3.200000 0.400000 0.000000
3.300000 0.400000 0.000000
3.400000 0.400000 0.000000
3.500000 0.400000 0.000000
3.600000 0.400000 0.000000
3.700000 0.400000 0.000000
3.800000 0.400000 0.000000
3.900000 0.400000 0.000000
4.000000 0.400000 0.000000
0.000000 0.500000 0.000000
0.100000 0.500000 0.000000
0.200000 0.500000 0.000000
0.300000 0.500000 0.000000
0.400000 0.500000 0.000000
0.500000 0.500000 0.000000
0.600000 0.500000 0.000000
0.700000 0.500000 0.000000
0.800000 0.500000 0.000000
0.900000 0.500000 0.000000
1.000000 0.500000 0.000000
1.100000 0.500000 0.000000
1.200000 0.500000 0.000000
1.300000 0.500000 0.000000
1.400000 0.500000 0.000000
1.500000 0.500000 0.000000
1.600000 0.500000 0.000000
1.700000 0.500000 0.000000
1.800000 0.500000 0.000000
1.900000 0.500000 0.000000
2.000000 0.500000 0.000000
2.100000 0.500000 0.000000
2.200000 0.500000 0.000000
2.300000 0.500000 0.000000
2.400000 0.500000 0.000000
2.500000 0.500000 0.000000
2.600000 0.500000 0.000000
2.700000 0.500000 0.000000
2.800000 0.500000 0.000000
2.900000 0.500000 0.000000
3.000000 0.500000 0.000000
3.100000 0.500000 0.000000
3.200000 0.500000 0.000000
3.300000 0.500000 0.000000
3.400000 0.500000 0.000000
3.500000 0.500000 0.000000
3.600000 0.500000 0.000000
3.700000 0.500000 0.000000
3.800000 0.500000 0.000000
3.900000 0.500000 0.000000
4.000000 0.500000 0.000000
0.000000 0.600000 0.000000
0.100000 0.600000 0.000000
0.200000 0.600000 0.000000
0.300000 0.600000 0.000000
0.400000 0.600000 0.000000
0.500000 0.600000 0.000000
0.600000 0.600000 0.000000
0.700000 0.600000 0.000000
0.800000 0.600000 0.000000
0.900000 0.600000 0.000000
1.000000 0.600000 0.000000
1.100000 0.600000 0.000000
1.200000 0.600000 0.000000
1.300000 0.600000 0.000000
1.400000 0.600000 0.000000
1.500000 0.600000 0.000000
1.600000 0.600000 0.000000
1.700000 0.600000 0.000000
1.800000 0.600000 0.000000
1.900000 0.600000 0.000000
2.000000 0.600000 0.000000
2.100000 0.600000 0.000000
2.200000 0.600000 0.000000
2.300000 0.600000 0.000000
2.400000 0.600000 0.000000
2.500000 0.600000 0.000000
2.600000 0.600000 0.000000
2.700000 0.600000 0.000000
2.800000 0.600000 0.000000
2.900000 0.600000 0.000000
3.000000 0.600000 0.000000
3.100000 0.600000 0.000000
3.200000 0.600000 0.000000
3.300000 0.600000 0.000000
3.400000 0.600000 0.000000
3.500000 0.600000 0.000000
3.600000 0.600000 0.000000
3.700000 0.600000 0.000000
3.800000 0.600000 0.000000
3.900000 0.600000 0.000000
4.000000 0.600000 0.000000
0.000000 0.700000 0.000000
0.100000 0.700000 0.000000
0.200000 0.700000 0.000000
0.300000 0.700000 0.000000
0.400000 0.700000 0.000000
0.500000 0.700000 0.000000
0.600000 0.700000 0.000000
0.700000 0.700000 0.000000
0.800000 0.700000 0.000000
0.900000 0.700000 0.000000
1.000000 0.700000 0.000000
1.100000 0.700000 0.000000
1.200000 0.700000 0.000000
1.300000 0.700000 0.000000
1.400000 0.700000 0.000000
1.500000 0.700000 0.000000
1.600000 0.700000 0.000000
1.700000 0.700000 0.000000
1.800000 0.700000 0.000000
1.900000 0.700000 0.000000
2.000000 0.700000 0.000000
2.100000 0.700000 0.000000
2.200000 0.700000 0.000000
2.300000 0.700000 0.000000
2.400000 0.700000 0.000000
2.500000 0.700000 0.000000
2.600000 0.700000 0.000000
2.700000 0.700000 0.000000
2.800000 0.700000 0.000000
2.900000 0.700000 0.000000
3.000000 0.700000 0.000000
3.100000 0.700000 0.000000
3.200000 0.700000 0.000000
3.300000 0.700000 0.000000
3.400000 0.700000 0.000000
3.500000 0.700000 0.000000
3.600000 0.700000 0.000000
3.700000 0.700000 0.000000
3.800000 0.700000 0.000000
3.900000 0.700000 0.000000
4.000000 0.700000 0.000000
0.000000 0.800000 0.000000
0.100000 0.800000 0.000000
0.200000 0.800000 0.000000
0.300000 0.800000 0.000000
0.400000 0.800000 0.000000
0.500000 0.800000 0.000000
0.600000 0.800000 0.000000
0.700000 0.800000 0.000000
0.800000 0.800000 0.000000
0.900000 0.800000 0.000000
1.000000 0.800000 0.000000
1.100000 0.800000 0.000000
1.200000 0.800000 0.000000
1.300000 0.800000 0.000000
1.400000 0.800000 0.000000
1.500000 0.800000 0.000000
1.600000 0.800000 0.000000
1.700000 0.800000 0.000000
1.800000 0.800000 0.000000
1.900000 0.800000 0.000000
2.000000 0.800000 0.000000
2.100000 0.800000 0.000000
2.200000 0.800000 0.000000
2.300000 0.800000 0.000000
2.400000 0.800000 0.000000
2.500000 0.800000 0.000000
2.600000 0.800000 0.000000
2.700000 0.800000 0.000000
2.800000 0.800000 0.000000
2.900000 0.800000 0.000000
3.000000 0.800000 0.000000
3.100000 0.800000 0.000000
3.200000 0.800000 0.000000
3.300000 0.800000 0.000000
3.400000 0.800000 0.000000
3.500000 0.800000 0.000000
3.600000 0.800000 0.000000
[...]
CELL_DATA 16000
SCALARS pressure float 1
LOOKUP_TABLE default
34.6358
34.459
34.122
33.6584
33.094
32.4451
31.7196
30.9184
30.0379
29.072
28.0149
26.8642
25.624
24.307
22.9347
21.5358
20.1421
18.7838
17.4852
16.2622
15.1216
14.0628
13.0791
12.1608
11.2968
10.4761
9.68868
8.92628
8.18209
7.45085
6.72859
6.01242
5.30028
4.59072
3.88278
3.17582
2.46943
1.76341
1.05767
0.352288
34.6915
34.4891
34.1382
33.6669
33.0984
32.4474
31.7209
30.9197
30.0397
29.0745
28.018
26.8676
25.6272
24.3093
22.9356
21.5349
20.1397
18.7804
17.4815
16.2587
15.1188
14.0607
13.0779
12.1604
11.2969
10.4765
9.68931
8.92699
8.18279
7.45149
6.72915
6.01289
5.30066
4.59102
3.88302
3.176
2.46956
1.76349
1.0577
0.35224
34.8117
34.5727
34.1975
33.711
33.1336
32.4784
31.7514
30.952
30.0752
29.1133
28.0586
26.9068
25.6609
24.3331
22.9461
21.5307
20.1218
18.7518
17.4464
16.2213
15.0828
14.0285
13.0507
12.1385
11.28
10.4639
9.68023
8.92065
8.17849
7.44867
6.72736
6.0118
5.30003
4.59069
3.88287
3.17594
2.46955
1.76348
1.05765
0.352141
34.9748
34.6935
34.2884
33.7822
33.1935
32.5338
31.8075
31.0126
30.1422
29.1864
28.1346
26.98
25.7233
24.3767
22.9645
21.5215
20.0868
18.697
17.3796
16.1507
15.0148
13.9676
12.9991
12.0968
11.2476
10.4396
9.66249
8.90807
8.1698
7.44282
6.72353
6.00937
5.29854
4.58982
3.88238
3.17569
2.46942
1.7634
1.05756
0.352055
35.1595
34.8361
34.3996
33.8724
33.272
32.6086
31.885
31.0975
30.237
29.2902
28.2428
27.0842
25.812
24.438
22.9893
21.506
20.0343
18.6163
17.2826
16.0488
14.9174
13.8808
12.926
12.0379
11.2019
10.4053
9.63752
8.89033
8.15751
7.4345
6.71804
6.00584
5.29635
4.5885
3.88162
3.17528
2.46921
1.76328
1.05748
0.352001
35.3467
34.9851
34.5189
33.9718
33.361
32.6953
31.9766
31.1994
30.3517
29.4167
28.3756
27.2124
25.9213
24.5131
23.0184
21.4846
19.9669
18.5145
17.1613
15.9227
14.7979
13.7751
12.8375
11.967
11.1472
10.3644
9.60777
8.86923
8.14291
7.42462
6.71151
6.00164
5.29372
4.58691
3.8807
3.17477
2.46895
1.76315
1.05742
0.351981
35.5192
35.1255
34.6338
34.0697
33.4504
32.7843
32.0722
31.3069
30.474
29.5528
28.5193
27.352
26.0407
24.595
23.0493
21.4595
19.8911
18.4014
17.028
15.7854
14.6689
13.662
12.7434
11.8921
11.0897
10.3216
9.57673
8.84728
8.12773
7.41437
6.70474
5.99727
5.29098
4.58525
3.87974
3.17424
2.46868
1.76303
1.05738
0.351988
35.6625
35.244
34.7323
34.1551
33.5297
32.8646
32.1595
31.4062
30.588
29.6806
28.6553
27.4851
26.1551
24.6735
23.0785
21.4342
19.817
18.2921
16.9004
15.6551
14.5475
13.5563
12.6561
11.823
11.0369
10.2824
9.54845
8.82733
8.11397
7.40509
6.69862
5.99333
5.28851
4.58376
3.87887
3.17377
2.46843
1.76292
1.05735
0.352011
35.7649
35.3296
34.8043
34.2182
33.5891
32.9253
32.2263
31.4828
30.6765
29.7806
28.7624
27.5905
26.2462
24.7361
23.1015
21.4135
19.7571
18.2045
16.799
15.5524
14.4524
13.4741
12.5886
11.7699
10.9964
10.2525
9.52691
8.81218
8.10355
7.39806
6.69399
5.99036
5.28665
4.58263
3.87821
3.17341
2.46826
1.76285
1.05734
0.352035
35.8182
35.3744
34.8423
34.2517
33.6209
32.958
32.2625
31.5246
30.7251
29.8357
28.8217
27.6492
26.297
24.7711
23.1143
21.4017
19.7235
18.1556
16.7426
15.4956
14.4002
13.4291
12.5518
11.741
10.9745
10.2364
9.51531
8.80403
8.09795
7.3943
6.69152
5.98877
5.28566
4.58203
3.87787
3.17322
2.46816
1.76281
1.05734
0.35205
35.8182
35.3744
34.8423
34.2518
33.6209
32.9581
32.2625
31.5246
30.7251
29.8357
28.8217
27.6492
26.297
24.7711
23.1143
21.4017
19.7236
18.1557
16.7427
15.4957
14.4003
13.4292
12.552
11.7411
10.9746
10.2365
9.51539
8.80411
8.09801
7.39435
6.69156
5.9888
5.28568
4.58205
3.87788
3.17323
2.46817
1.76282
1.05734
0.352048
35.7649
35.3296
34.8044
34.2183
33.5892
32.9254
32.2264
31.4829
30.6766
29.7807
28.7624
27.5905
26.2461
24.7361
23.1015
21.4135
19.7573
18.2047
16.7993
15.5527
14.4529
13.4745
12.5891
11.7702
10.9968
10.2528
9.52717
8.8124
8.10372
7.39821
6.69411
5.99045
5.28672
4.58268
3.87825
3.17343
2.46827
1.76286
1.05734
0.352031
35.6626
35.2441
34.7324
34.1552
33.5298
32.8647
32.1596
31.4063
30.5881
29.6807
28.6553
27.4851
26.155
24.6734
23.0785
21.4344
19.8172
18.2925
16.9009
15.6557
14.5481
13.557
12.6568
11.8236
11.0375
10.2829
9.54886
8.82768
8.11426
7.40532
6.6988
5.99348
5.28862
4.58384
3.87893
3.17381
2.46846
1.76294
1.05736
0.352004
35.5193
35.1256
34.6339
34.0698
33.4505
32.7845
32.0724
31.3071
30.4742
29.5529
28.5194
27.3521
26.0407
24.595
23.0494
21.4597
19.8914
18.4019
17.0287
15.7862
14.6697
13.6629
12.7443
11.8929
11.0904
10.3222
9.57727
8.84774
8.12811
7.41467
6.70498
5.99747
5.29113
4.58536
3.87982
3.1743
2.46871
1.76304
1.05738
0.351979
35.3468
34.9852
34.519
33.972
33.3611
32.6955
31.9768
31.1996
30.3519
29.4169
28.3757
27.2124
25.9213
24.5131
23.0185
21.4849
19.9674
18.5152
17.1622
15.9237
14.7989
13.7762
12.8385
11.968
11.1481
10.3651
9.60842
8.86978
8.14336
7.42499
6.7118
6.00186
5.29389
4.58704
3.88079
3.17483
2.46898
1.76317
1.05742
0.351969
35.1597
34.8363
34.3997
33.8726
33.2722
32.6088
31.8851
31.0977
30.2372
29.2903
28.2429
27.0842
25.8121
24.4381
22.9895
21.5063
20.0349
18.6171
17.2835
16.0499
14.9186
13.882
12.9271
12.0389
11.2029
10.4061
9.63824
8.89093
8.15801
7.43491
6.71836
6.00609
5.29653
4.58864
3.88172
3.17534
2.46925
1.7633
1.05748
0.351988
34.975
34.6937
34.2886
33.7824
33.1937
32.534
31.8076
31.0128
30.1424
29.1865
28.1347
26.98
25.7234
24.3768
22.9648
21.5219
20.0874
18.6978
17.3807
16.1519
15.016
13.9688
13.0003
12.0979
11.2486
10.4404
9.66325
8.9087
8.17032
7.44324
6.72386
6.00962
5.29873
4.58996
3.88248
3.17575
2.46946
1.76341
1.05756
0.352042
34.8119
34.5729
34.1977
33.7112
33.1337
32.4786
31.7515
30.9522
30.0754
29.1134
28.0587
26.9069
25.661
24.3333
22.9464
21.5312
20.1225
18.7527
17.4474
16.2225
15.084
14.0298
13.0519
12.1396
11.281
10.4648
9.68099
8.92128
8.17902
7.44909
6.72769
6.01205
5.30022
4.59083
3.88296
3.176
2.46958
1.76349
1.05764
0.352129
34.6917
34.4893
34.1383
33.6671
33.0986
32.4476
31.7211
30.9199
30.0398
29.0746
28.0182
26.8678
25.6273
24.3095
22.9359
21.5354
20.1404
18.7813
17.4825
16.2598
15.12
14.062
13.0791
12.1615
11.2979
10.4774
9.69005
8.92761
8.1833
7.4519
6.72947
6.01313
5.30084
4.59115
3.8831
3.17605
2.46959
1.7635
1.05769
0.352229
34.636
34.4592
34.1221
33.6586
33.0942
32.4453
31.7198
30.9186
30.0381
29.0722
28.015
26.8643
25.6241
24.3072
22.935
21.5363
20.1428
18.7847
17.4863
16.2633
15.1228
14.064
13.0803
12.1619
11.2978
10.4769
9.68939
8.92688
8.18258
7.45124
6.72889
6.01265
5.30044
4.59084
3.88286
3.17586
2.46945
1.76341
1.05766
0.352278
34.6915
34.4891
34.1382
33.6669
33.0984
32.4474
31.7209
30.9197
30.0397
29.0745
28.018
26.8676
25.6272
24.3093
22.9355
21.5349
20.1397
18.7804
17.4815
16.2587
15.1188
14.0607
13.0779
12.1604
11.2969
10.4765
9.68931
8.92699
8.1828
7.4515
6.72915
6.01289
5.30066
4.59102
3.88302
3.176
2.46956
1.76349
1.0577
0.35224
34.7352
34.4944
34.1246
33.6447
33.0719
32.4181
31.6892
30.8856
30.0034
29.037
27.9809
26.8332
25.5982
24.2883
22.9247
21.5352
20.1507
18.8006
17.5084
16.2895
15.1508
14.0917
13.1063
12.1852
11.3179
10.4937
9.70298
8.93762
8.19089
7.45755
6.7336
6.01611
5.30295
4.59264
3.88414
3.17678
2.47011
1.76388
1.05796
0.352315
34.8514
34.5646
34.166
33.6686
33.0855
32.4262
31.6948
30.8907
30.0093
29.0442
27.9893
26.8419
25.6058
24.2933
22.9258
21.532
20.1437
18.7912
17.4981
16.2798
15.1428
14.0858
13.1026
12.1833
11.3174
10.4942
9.70413
8.93906
8.1924
7.45898
6.73488
6.0172
5.30386
4.59337
3.88471
3.17722
2.47044
1.76411
1.05808
0.352297
35.0176
34.679
34.246
33.7265
33.1303
32.4645
31.7314
30.9288
30.0509
29.0895
28.0364
26.8871
25.644
24.3193
22.9355
21.5237
20.1192
18.7544
17.4545
16.2345
15.1
14.0482
13.0714
12.1588
11.2989
10.4808
9.69479
8.9328
8.18838
7.45653
6.73349
6.0165
5.30358
4.59333
3.88481
3.17736
2.47059
1.76423
1.05814
0.352281
35.2092
34.8188
34.3502
33.8073
33.1973
32.5253
31.7919
30.9934
30.1217
29.1661
28.1156
26.9628
25.7077
24.3623
22.9512
21.5097
20.0781
18.6931
17.3817
16.1588
15.028
13.9845
13.018
12.116
11.266
10.4563
9.67716
8.92049
8.18003
7.45105
6.73001
6.01438
5.30236
4.59268
3.88451
3.17727
2.47059
1.76426
1.05818
0.352292
35.4046
34.9668
34.4647
33.8994
33.2767
32.5998
31.868
31.0757
30.2126
29.2649
28.2181
27.0607
25.7902
24.4178
22.9709
21.4905
20.0238
18.6127
17.2869
16.0606
14.9352
13.9024
12.9492
12.0609
11.2235
10.4246
9.65412
8.90423
8.16887
7.44358
6.72516
6.01133
5.30052
4.59163
3.88395
3.177
2.47049
1.76425
1.0582
0.352332
35.585
35.1069
34.5758
33.9914
33.3579
32.6779
31.9492
31.1646
30.3116
29.3734
28.3312
27.1695
25.8821
24.4796
22.9924
21.468
19.9619
18.5223
17.1811
15.952
14.8331
13.8127
12.8744
12.0011
11.1774
10.3901
9.62913
8.88655
8.15667
7.43537
6.71978
6.00791
5.29841
4.59039
3.88327
3.17666
2.47035
1.76422
1.05822
0.352393
35.7348
35.2253
34.6715
34.072
33.4306
32.7489
32.0241
31.2475
30.4048
29.4761
28.4391
27.274
25.9709
24.5394
23.0128
21.4455
19.9012
18.4344
17.0794
15.8484
14.7365
13.7283
12.8043
11.9453
11.1345
10.3582
9.60595
8.87016
8.14535
7.42774
6.71476
6.0047
5.29642
4.58921
3.8826
3.17631
2.4702
1.76417
1.05825
0.35246
35.8418
35.3109
34.7415
34.1318
33.4851
32.8029
32.0815
31.3117
30.4774
29.5567
28.5245
27.3571
26.0421
24.5875
23.0291
21.4269
19.852
18.3638
16.9983
15.7666
14.6607
13.6625
12.75
11.9022
11.1015
10.3336
9.58816
8.85758
8.13666
7.42188
6.71091
6.00223
5.29489
4.5883
3.88208
3.17604
2.47007
1.76414
1.05827
0.352516
35.8975
35.3557
34.7784
34.1635
33.5143
32.832
32.1127
31.3467
30.5172
29.6012
28.5717
27.4034
26.0819
24.6145
23.0383
21.4164
19.8243
18.3243
16.9533
15.7214
14.6191
13.6265
12.7203
11.8788
11.0836
10.3203
9.57854
8.85079
8.13198
7.41873
6.70883
6.0009
5.29407
4.5878
3.8818
3.1759
2.47001
1.76412
1.05828
0.352547
35.8975
35.3557
34.7785
34.1635
33.5144
32.832
32.1128
31.3467
30.5172
29.6012
28.5717
27.4034
26.0818
24.6145
23.0383
21.4164
19.8243
18.3244
16.9534
15.7215
14.6192
13.6266
12.7204
11.8789
11.0837
10.3204
9.57862
8.85086
8.13204
7.41877
6.70887
6.00093
5.29409
4.58782
3.88182
3.17591
2.47002
1.76413
1.05828
0.352547
35.8418
35.3109
34.7416
34.1318
33.4852
32.8029
32.0816
31.3117
30.4774
29.5568
28.5245
27.3571
26.042
24.5875
23.0291
21.427
19.8521
18.3641
16.9987
15.767
14.6611
13.6629
12.7503
11.9026
11.1018
10.3339
9.5884
8.85778
8.13683
7.42202
6.71102
6.00232
5.29496
4.58835
3.88212
3.17607
2.47009
1.76415
1.05827
0.352514
35.7349
35.2254
34.6716
34.0721
33.4307
32.749
32.0242
31.2476
30.4049
29.4762
28.4392
27.274
25.9709
24.5394
23.0129
21.4456
19.9014
18.4348
17.0799
15.849
14.7371
13.7289
12.8049
11.9459
11.135
10.3586
9.60634
8.87048
8.14561
7.42796
6.71494
6.00484
5.29653
4.58929
3.88266
3.17636
2.47022
1.76419
1.05826
0.352457
35.5851
35.107
34.5759
33.9915
33.3581
32.678
31.9493
31.1648
30.3118
29.3735
28.3313
27.1695
25.8821
24.4796
22.9925
21.4682
19.9623
18.5228
17.1818
15.9528
14.8339
13.8135
12.8751
12.0018
11.178
10.3907
9.62964
8.88698
8.15702
7.43566
6.72001
6.00809
5.29855
4.5905
3.88334
3.17671
2.47038
1.76424
1.05824
0.352389
35.4048
34.9669
34.4648
33.8996
33.2768
32.5999
31.8682
31.0759
30.2127
29.2651
28.2182
27.0608
25.7903
24.4179
22.9711
21.4908
20.0242
18.6134
17.2877
16.0615
14.9361
13.9033
12.9501
12.0618
11.2242
10.4253
9.65473
8.90474
8.16929
7.44392
6.72543
6.01155
5.30068
4.59175
3.88404
3.17707
2.47054
1.76428
1.05821
0.352326
35.2094
34.819
34.3504
33.8075
33.1975
32.5254
31.7921
30.9936
30.1219
29.1663
28.1158
26.9629
25.7078
24.3624
22.9514
21.5101
20.0787
18.6939
17.3826
16.1598
15.0291
13.9855
13.019
12.117
11.2669
10.4571
9.67784
8.92106
8.1805
7.45143
6.73032
6.01462
5.30254
4.59282
3.88461
3.17733
2.47063
1.76429
1.05819
0.352285
35.0178
34.6792
34.2462
33.7267
33.1305
32.4647
31.7315
30.929
30.0511
29.0896
28.0365
26.8872
25.6442
24.3194
22.9358
21.5242
20.1198
18.7552
17.4554
16.2356
15.1011
14.0494
13.0725
12.1598
11.2999
10.4816
9.6955
8.9334
8.18888
7.45694
6.73381
6.01675
5.30376
4.59347
3.8849
3.17743
2.47063
1.76425
1.05815
0.352273
34.8516
34.5648
34.1662
33.6688
33.0857
32.4264
31.695
30.8909
30.0095
29.0443
27.9894
26.842
25.6059
24.2935
22.9262
21.5325
20.1444
18.792
17.4991
16.2809
15.1439
14.087
13.1037
12.1844
11.3184
10.4951
9.70486
8.93967
8.1929
7.45939
6.7352
6.01745
5.30404
4.5935
3.88481
3.17728
2.47047
1.76413
1.05809
0.352287
34.7354
34.4946
34.1248
33.6448
33.072
32.4183
31.6894
30.8858
30.0036
29.0372
27.981
26.8333
25.5983
24.2885
22.9251
21.5357
20.1514
18.8015
17.5094
16.2906
15.1519
14.0929
13.1074
12.1863
11.3188
10.4945
9.70369
8.93822
8.19138
7.45794
6.73391
6.01634
5.30312
4.59276
3.88422
3.17683
2.47013
1.76389
1.05796
0.352304
34.6917
34.4893
34.1383
33.6671
33.0986
32.4476
31.7211
30.9199
30.0399
29.0747
28.0182
26.8678
25.6274
24.3095
22.9359
21.5354
20.1404
18.7813
17.4825
16.2598
15.1199
14.0619
13.079
12.1614
11.2978
10.4773
9.69
8.92756
8.18326
7.45186
6.72944
6.01311
5.30082
4.59113
3.88309
3.17604
2.46958
1.76349
1.05769
0.352228
34.8117
34.5727
34.1975
33.711
33.1335
32.4784
31.7513
30.952
30.0752
29.1133
28.0585
26.9068
25.6608
24.333
22.9461
21.5307
20.1218
18.7518
17.4464
16.2214
15.0828
14.0286
13.0507
12.1385
11.28
10.4639
9.68025
8.92066
8.1785
7.44867
6.72736
6.01181
5.30004
4.5907
3.88287
3.17594
2.46955
1.76348
1.05765
0.352141
34.8514
34.5646
34.166
33.6686
33.0855
32.4262
31.6948
30.8907
30.0093
29.0441
27.9892
26.8418
25.6057
24.2932
22.9258
21.5319
20.1437
18.7912
17.4981
16.2798
15.1428
14.0859
13.1026
12.1834
11.3174
10.4942
9.70414
8.93907
8.19241
7.45899
6.73488
6.01721
5.30386
4.59337
3.88472
3.17722
2.47044
1.76411
1.05808
0.352297
34.9634
34.6259
34.1945
33.6771
33.0822
32.4157
31.68
30.8735
29.9911
29.0262
27.9726
26.8272
25.5936
24.2839
22.9194
21.5288
20.1442
18.7955
17.5064
16.2915
15.1568
14.1012
13.1181
12.1982
11.3309
10.506
9.71412
8.94729
8.19901
7.46419
6.7389
6.02026
5.30615
4.59506
3.88596
3.17812
2.47108
1.76456
1.05835
0.352326
35.1299
34.7358
34.2663
33.7243
33.1143
32.4396
31.7006
30.8942
30.0141
29.0523
28.0008
26.8551
25.6171
24.2988
22.9224
21.519
20.1234
18.7675
17.4756
16.2618
15.1309
14.0803
13.1024
12.1873
11.3239
10.502
9.71219
8.94674
8.19932
7.46495
6.73986
6.02125
5.30707
4.59587
3.88663
3.17867
2.47152
1.76487
1.05853
0.352358
35.3261
34.8745
34.3657
33.7977
33.172
32.4896
31.749
30.9453
30.0706
29.1144
28.0661
26.918
25.6699
24.333
22.9317
21.5015
20.0825
18.7104
17.4108
16.1971
15.0718
14.0298
13.0617
12.1558
11.3007
10.4854
9.70086
8.9393
8.19465
7.46219
6.73837
6.02057
5.30687
4.59594
3.88684
3.17892
2.47176
1.76507
1.05867
0.352421
35.5285
35.0237
34.4776
33.8849
33.2447
32.556
31.8157
31.0173
30.1507
29.2027
28.1589
27.0076
25.7452
24.3819
22.9451
21.4767
20.0244
18.6296
17.3196
16.1061
14.9886
13.9584
13.0035
12.1104
11.2664
10.4605
9.68323
8.92722
8.18664
7.45706
6.73523
6.01874
5.3059
4.5955
3.88671
3.17896
2.47187
1.7652
1.05879
0.352519
35.7168
35.1661
34.5877
33.9736
33.3212
32.6281
31.8899
31.0987
30.2421
29.3042
28.2664
27.1124
25.8339
24.4398
22.9608
21.4468
19.9554
18.5346
17.2135
16.0014
14.8934
13.8772
12.9374
12.0587
11.2274
10.4319
9.66284
8.91308
8.1771
7.45082
6.73127
6.01634
5.30452
4.59477
3.88637
3.17885
2.47189
1.76528
1.05889
0.352638
35.8738
35.2871
34.6831
34.0522
33.3905
32.6949
31.9598
31.1763
30.3303
29.4031
28.3725
27.217
25.9236
24.4989
22.9766
21.4158
19.8848
18.4389
17.1082
15.8987
14.8012
13.7991
12.8742
12.0094
11.1902
10.4046
9.64336
8.89952
8.1679
7.44474
6.72738
6.01393
5.3031
4.59398
3.88598
3.1787
2.47186
1.76532
1.05898
0.352756
35.9862
35.3748
34.7531
34.1107
33.443
32.7461
32.0141
31.2372
30.4001
29.4823
28.4584
27.3028
25.9983
24.5487
22.99
21.3895
19.8255
18.3596
17.0223
15.8162
14.7278
13.7374
12.8246
11.971
11.1612
10.3834
9.62819
8.88895
8.16071
7.43998
6.72431
6.01202
5.30196
4.59334
3.88565
3.17856
2.47183
1.76535
1.05905
0.352851
36.0448
35.4208
34.7901
34.1419
33.4712
32.7738
32.0437
31.2706
30.4388
29.5264
28.5066
27.3515
26.0412
24.5776
22.9978
21.3741
19.7911
18.3143
16.9738
15.77
14.6871
13.7035
12.7974
11.9499
11.1454
10.3718
9.61995
8.88321
8.1568
7.43739
6.72264
6.01098
5.30134
4.59299
3.88547
3.17848
2.47181
1.76537
1.05908
0.352904
36.0449
35.4208
34.7901
34.1419
33.4712
32.7738
32.0437
31.2706
30.4388
29.5264
28.5066
27.3515
26.0411
24.5776
22.9978
21.3741
19.7911
18.3144
16.9739
15.7702
14.6873
13.7036
12.7976
11.95
11.1455
10.3719
9.62003
8.88327
8.15686
7.43743
6.72268
6.01101
5.30136
4.59301
3.88549
3.17849
2.47182
1.76537
1.05908
0.352903
35.9863
35.3748
34.7532
34.1108
33.443
32.7461
32.0142
31.2372
30.4002
29.4824
28.4584
27.3028
25.9982
24.5486
22.99
21.3895
19.8256
18.3599
17.0226
15.8165
14.7282
13.7378
12.825
11.9713
11.1615
10.3836
9.62842
8.88914
8.16087
7.44011
6.72442
6.0121
5.30202
4.59339
3.88569
3.17858
2.47185
1.76536
1.05905
0.352849
35.8739
35.2872
34.6832
34.0523
33.3906
32.695
31.9599
31.1764
30.3304
29.4032
28.3726
27.217
25.9236
24.4989
22.9766
21.4159
19.8851
18.4393
17.1087
15.8993
14.8018
13.7997
12.8748
12.01
11.1907
10.405
9.64373
8.89983
8.16816
7.44495
6.72755
6.01407
5.3032
4.59406
3.88604
3.17874
2.47189
1.76534
1.05899
0.352753
35.7169
35.1662
34.5878
33.9738
33.3213
32.6282
31.8901
31.0988
30.2423
29.3043
28.2666
27.1124
25.834
24.4398
22.9608
21.447
19.9557
18.5352
17.2142
16.0021
14.8942
13.878
12.9382
12.0594
11.228
10.4324
9.66332
8.91349
8.17744
7.4511
6.7315
6.01652
5.30466
4.59487
3.88645
3.1789
2.47192
1.76529
1.0589
0.352633
35.5287
35.0238
34.4777
33.8851
33.2449
32.5562
31.8159
31.0175
30.1509
29.2029
28.159
27.0077
25.7453
24.382
22.9453
21.477
20.0249
18.6303
17.3204
16.107
14.9895
13.9594
13.0044
12.1112
11.2672
10.4611
9.68381
8.92772
8.18705
7.4574
6.73549
6.01895
5.30606
4.59562
3.88679
3.17901
2.4719
1.76521
1.0588
0.352513
35.3263
34.8747
34.3659
33.7979
33.1722
32.4898
31.7492
30.9455
30.0708
29.1146
28.0663
26.9182
25.67
24.3331
22.9319
21.5019
20.083
18.7111
17.4117
16.198
15.0728
14.0308
13.0627
12.1568
11.3015
10.4862
9.70151
8.93985
8.19511
7.46257
6.73867
6.0208
5.30705
4.59607
3.88693
3.17898
2.47179
1.76509
1.05868
0.352415
35.1301
34.7359
34.2665
33.7245
33.1145
32.4398
31.7008
30.8944
30.0143
29.0525
28.001
26.8552
25.6173
24.299
22.9227
21.5195
20.124
18.7683
17.4765
16.2628
15.132
14.0814
13.1035
12.1883
11.3248
10.5028
9.71288
8.94733
8.1998
7.46534
6.74017
6.02149
5.30725
4.596
3.88673
3.17873
2.47155
1.76488
1.05854
0.35235
34.9636
34.6261
34.1947
33.6773
33.0824
32.4159
31.6802
30.8737
29.9913
29.0264
27.9727
26.8274
25.5938
24.2841
22.9197
21.5293
20.1448
18.7964
17.5074
16.2926
15.158
14.1023
13.1192
12.1992
11.3319
10.5068
9.71483
8.94788
8.1995
7.46458
6.73921
6.0205
5.30633
4.59519
3.88604
3.17818
2.47112
1.76457
1.05835
0.352318
34.8516
34.5648
34.1662
33.6688
33.0857
32.4264
31.695
30.8909
30.0095
29.0443
27.9894
26.842
25.6059
24.2935
22.9261
21.5325
20.1444
18.792
17.4991
16.281
15.144
14.087
13.1037
12.1844
11.3184
10.495
9.70484
8.93965
8.19288
7.45936
6.73518
6.01743
5.30402
4.59348
3.88479
3.17726
2.47046
1.76411
1.05808
0.352285
34.8119
34.5729
34.1977
33.7112
33.1337
32.4786
31.7516
30.9522
30.0754
29.1135
28.0587
26.9069
25.661
24.3332
22.9464
21.5312
20.1225
18.7527
17.4474
16.2225
15.084
14.0297
13.0518
12.1395
11.2809
10.4647
9.68091
8.9212
8.17894
7.44902
6.72763
6.012
5.30017
4.59079
3.88292
3.17597
2.46956
1.76347
1.05763
0.352125
34.9748
34.6935
34.2884
33.7822
33.1935
32.5338
31.8074
31.0125
30.1422
29.1863
28.1344
26.9798
25.7232
24.3765
22.9644
21.5214
20.0868
18.697
17.3797
16.1508
15.0149
13.9677
12.9992
12.0968
11.2476
10.4396
9.66252
8.90809
8.16982
7.44283
6.72354
6.00937
5.29854
4.58982
3.88238
3.17569
2.46943
1.7634
1.05757
0.352055
35.0176
34.679
34.246
33.7265
33.1303
32.4644
31.7313
30.9288
30.0509
29.0894
28.0363
26.887
25.6439
24.3192
22.9354
21.5237
20.1191
18.7544
17.4545
16.2346
15.1
14.0483
13.0715
12.1589
11.299
10.4808
9.69481
8.93282
8.18839
7.45654
6.7335
6.01651
5.30358
4.59333
3.88481
3.17737
2.47059
1.76423
1.05814
0.352281
35.1299
34.7357
34.2663
33.7243
33.1143
32.4396
31.7006
30.8942
30.0141
29.0522
28.0007
26.855
25.6171
24.2987
22.9224
21.519
20.1234
18.7675
17.4756
16.2618
15.1309
14.0803
13.1025
12.1873
11.3239
10.502
9.7122
8.94675
8.19932
7.46495
6.73986
6.02125
5.30707
4.59587
3.88664
3.17867
2.47152
1.76487