# vtk DataFile Version 2.0
I need something to put here
ASCII

DATASET STRUCTURED_GRID
DIMENSIONS 41 21 21
POINTS 18081 float
0.000000 0.000000 0.000000
0.100000 0.000000 0.000000
0.200000 0.000000 0.000000
0.300000 0.000000 0.000000
0.400000 0.000000 0.000000
0.500000 0.000000 0.000000
0.600000 0.000000 0.000000
0.700000 0.000000 0.000000
0.800000 0.000000 0.000000
0.900000 0.000000 0.000000
1.000000 0.000000 0.000000
1.100000 0.000000 0.000000
1.200000 0.000000 0.000000
1.300000 0.000000 0.000000
1.400000 0.000000 0.000000
1.500000 0.000000 0.000000
1.600000 0.000000 0.000000
1.700000 0.000000 0.000000
1.800000 0.000000 0.000000
1.900000 0.000000 0.000000
2.000000 0.000000 0.000000
2.100000 0.000000 0.000000
2.200000 0.000000 0.000000
2.300000 0.000000 0.000000
2.400000 0.000000 0.000000
2.500000 0.000000 0.000000
2.600000 0.000000 0.000000
2.700000 0.000000 0.000000
2.800000 0.000000 0.000000
2.900000 0.000000 0.000000
3.000000 0.000000 0.000000
3.100000 0.000000 0.000000
3.200000 0.000000 0.000000
3.300000 0.000000 0.000000
3.400000 0.000000 0.000000
3.500000 0.000000 0.000000
3.600000 0.000000 0.000000
3.700000 0.000000 0.000000
3.800000 0.000000 0.000000
3.900000 0.000000 0.000000
4.000000 0.000000 0.000000
0.000000 0.100000 0.000000
0.100000 0.100000 0.000000
0.200000 0.100000 0.000000
0.300000 0.100000 0.000000
0.400000 0.100000 0.000000
0.500000 0.100000 0.000000
0.600000 0.100000 0.000000
0.700000 0.100000 0.000000
0.800000 0.100000 0.000000
0.900000 0.100000 0.000000
1.000000 0.100000 0.000000
1.100000 0.100000 0.000000
1.200000 0.100000 0.000000
1.300000 0.100000 0.000000
1.400000 0.100000 0.000000
1.500000 0.100000 0.000000
1.600000 0.100000 0.000000
1.700000 0.100000 0.000000
1.800000 0.100000 0.000000
1.900000 0.100000 0.000000
2.000000 0.100000 0.000000
2.100000 0.100000 0.000000
2.200000 0.100000 0.000000
2.300000 0.100000 0.000000
2.400000 0.100000 0.000000
2.500000 0.100000 0.000000
2.600000 0.100000 0.000000
2.700000 0.100000 0.000000
2.800000 0.100000 0.000000
2.900000 0.100000 0.000000
3.000000 0.100000 0.000000
3.100000 0.100000 0.000000
3.200000 0.100000 0.000000
3.300000 0.100000 0.000000
3.400000 0.100000 0.000000
3.500000 0.100000 0.000000
3.600000 0.100000 0.000000
3.700000 0.100000 0.000000
3.800000 0.100000 0.000000
3.900000 0.100000 0.000000
4.000000 0.100000 0.000000
0.000000 0.200000 0.000000
0.100000 0.200000 0.000000
0.200000 0.200000 0.000000
0.300000 0.200000 0.000000
0.400000 0.200000 0.000000
0.500000 0.200000 0.000000
0.600000 0.200000 0.000000
0.700000 0.200000 0.000000
0.800000 0.200000 0.000000
0.900000 0.200000 0.000000
1.000000 0.200000 0.000000
1.100000 0.200000 0.000000
1.200000 0.200000 0.000000
1.300000 0.200000 0.000000
1.400000 0.200000 0.000000
1.500000 0.200000 0.000000
1.600000 0.200000 0.000000
1.700000 0.200000 0.000000
1.800000 0.200000 0.000000
1.900000 0.200000 0.000000
2.000000 0.200000 0.000000
2.100000 0.200000 0.000000
2.200000 0.200000 0.000000
2.300000 0.200000 0.000000
2.400000 0.200000 0.000000
2.500000 0.200000 0.000000
2.600000 0.200000 0.000000
2.700000 0.200000 0.000000
2.800000 0.200000 0.000000
2.900000 0.200000 0.000000
3.000000 0.200000 0.000000
3.100000 0.200000 0.000000
3.200000 0.200000 0.000000
3.300000 0.200000 0.000000
3.400000 0.200000 0.000000
3.500000 0.200000 0.000000
3.600000 0.200000 0.000000
3.700000 0.200000 0.000000
3.800000 0.200000 0.000000
3.900000 0.200000 0.000000
4.000000 0.200000 0.000000
0.000000 0.300000 0.000000
0.100000 0.300000 0.000000
0.200000 0.300000 0.000000
0.300000 0.300000 0.000000
0.400000 0.300000 0.000000
0.500000 0.300000 0.000000
0.600000 0.300000 0.000000
0.700000 0.300000 0.000000
0.800000 0.300000 0.000000
0.900000 0.300000 0.000000
1.000000 0.300000 0.000000
1.100000 0.300000 0.000000
1.200000 0.300000 0.000000
1.300000 0.300000 0.000000
1.400000 0.300000 0.000000
1.500000 0.300000 0.000000
1.600000 0.300000 0.000000
1.700000 0.300000 0.000000
1.800000 0.300000 0.000000
1.900000 0.300000 0.000000
2.000000 0.300000 0.000000
2.100000 0.300000 0.000000
2.200000 0.300000 0.000000
2.300000 0.300000 0.000000
2.400000 0.300000 0.000000
2.500000 0.300000 0.000000
2.600000 0.300000 0.000000
2.700000 0.300000 0.000000
2.800000 0.300000 0.000000
2.900000 0.300000 0.000000
3.000000 0.300000 0.000000
3.100000 0.300000 0.000000
3.200000 0.300000 0.000000
3.300000 0.300000 0.000000
3.400000 0.300000 0.000000
3.500000 0.300000 0.000000
3.600000 0.300000 0.000000
3.700000 0.300000 0.000000
3.800000 0.300000 0.000000
3.900000 0.300000 0.000000
4.000000 0.300000 0.000000
0.000000 0.400000 0.000000
0.100000 0.400000 0.000000
0.200000 0.400000 0.000000
0.300000 0.400000 0.000000
0.400000 0.400000 0.000000
0.500000 0.400000 0.000000
0.600000 0.400000 0.000000
0.700000 0.400000 0.000000
0.800000 0.400000 0.000000
0.900000 0.400000 0.000000
1.000000 0.400000 0.000000
1.100000 0.400000 0.000000
1.200000 0.400000 0.000000
1.300000 0.400000 0.000000
1.400000 0.400000 0.000000
1.500000 0.400000 0.000000
1.600000 0.400000 0.000000
1.700000 0.400000 0.000000
1.800000 0.400000 0.000000
1.900000 0.400000 0.000000
2.000000 0.400000 0.000000
2.100000 0.400000 0.000000
2.200000 0.400000 0.000000
2.300000 0.400000 0.000000
2.400000 0.400000 0.000000
2.500000 0.400000 0.000000
2.600000 0.400000 0.000000
2.700000 0.400000 0.000000
2.800000 0.400000 0.000000
2.900000 0.400000 0.000000
3.000000 0.400000 0.000000
3.100000 0.400000 0.000000
3.200000 0.400000 0.000000
3.300000 0.400000 0.000000
3.400000 0.400000 0.000000
3.500000 0.400000 0.000000
3.600000 0.400000 0.000000
3.700000 0.400000 0.000000
3.800000 0.400000 0.000000
3.900000 0.400000 0.000000
4.000000 0.400000 0.000000
0.000000 0.500000 0.000000
0.100000 0.500000 0.000000
0.200000 0.500000 0.000000
0.300000 0.500000 0.000000
0.400000 0.500000 0.000000
0.500000 0.500000 0.000000
0.600000 0.500000 0.000000
0.700000 0.500000 0.000000
0.800000 0.500000 0.000000
0.900000 0.500000 0.000000
1.000000 0.500000 0.000000
1.100000 0.500000 0.000000
1.200000 0.500000 0.000000
1.300000 0.500000 0.000000
1.400000 0.500000 0.000000
1.500000 0.500000 0.000000
1.600000 0.500000 0.000000
1.700000 0.500000 0.000000
1.800000 0.500000 0.000000
1.900000 0.500000 0.000000
2.000000 0.500000 0.000000
2.100000 0.500000 0.000000
2.200000 0.500000 0.000000
2.300000 0.500000 0.000000
2.400000 0.500000 0.000000
2.500000 0.500000 0.000000
2.600000 0.500000 0.000000
2.700000 0.500000 0.000000
2.800000 0.500000 0.000000
2.900000 0.500000 0.000000
3.000000 0.500000 0.000000
3.100000 0.500000 0.000000
3.200000 0.500000 0.000000
3.300000 0.500000 0.000000
3.400000 0.500000 0.000000
3.500000 0.500000 0.000000
3.600000 0.500000 0.000000
3.700000 0.500000 0.000000
3.800000 0.500000 0.000000
3.900000 0.500000 0.000000
4.000000 0.500000 0.000000
0.000000 0.600000 0.000000
0.100000 0.600000 0.000000
0.200000 0.600000 0.000000
0.300000 0.600000 0.000000
0.400000 0.600000 0.000000
0.500000 0.600000 0.000000
0.600000 0.600000 0.000000
0.700000 0.600000 0.000000
0.800000 0.600000 0.000000
0.900000 0.600000 0.000000
1.000000 0.600000 0.000000
1.100000 0.600000 0.000000
1.200000 0.600000 0.000000
1.300000 0.600000 0.000000
1.400000 0.600000 0.000000
1.500000 0.600000 0.000000
1.600000 0.600000 0.000000
1.700000 0.600000 0.000000
1.800000 0.600000 0.000000
1.900000 0.600000 0.000000
2.000000 0.600000 0.000000
2.100000 0.600000 0.000000
2.200000 0.600000 0.000000
2.300000 0.600000 0.000000
2.400000 0.600000 0.000000
2.500000 0.600000 0.000000
2.600000 0.600000 0.000000
2.700000 0.600000 0.000000
2.800000 0.600000 0.000000
2.900000 0.600000 0.000000
3.000000 0.600000 0.000000
3.100000 0.600000 0.000000
3.200000 0.600000 0.000000
3.300000 0.600000 0.000000
3.400000 0.600000 0.000000
3.500000 0.600000 0.000000
3.600000 0.600000 0.000000
3.700000 0.600000 0.000000
3.800000 0.600000 0.000000
3.900000 0.600000 0.000000
4.000000 0.600000 0.000000
0.000000 0.700000 0.000000
0.100000 0.700000 0.000000
0.200000 0.700000 0.000000
0.300000 0.700000 0.000000
0.400000 0.700000 0.000000
0.500000 0.700000 0.000000
0.600000 0.700000 0.000000
0.700000 0.700000 0.000000
0.800000 0.700000 0.000000
0.900000 0.700000 0.000000
1.000000 0.700000 0.000000
1.100000 0.700000 0.000000
1.200000 0.700000 0.000000
1.300000 0.700000 0.000000
1.400000 0.700000 0.000000
1.500000 0.700000 0.000000
1.600000 0.700000 0.000000
1.700000 0.700000 0.000000
1.800000 0.700000 0.000000
1.900000 0.700000 0.000000
2.000000 0.700000 0.000000
2.100000 0.700000 0.000000
2.200000 0.700000 0.000000
2.300000 0.700000 0.000000
2.400000 0.700000 0.000000
2.500000 0.700000 0.000000
2.600000 0.700000 0.000000
2.700000 0.700000 0.000000
2.800000 0.700000 0.000000
2.900000 0.700000 0.000000
3.000000 0.700000 0.000000
3.100000 0.700000 0.000000
3.200000 0.700000 0.000000
3.300000 0.700000 0.000000
3.400000 0.700000 0.000000
3.500000 0.700000 0.000000
3.600000 0.700000 0.000000
3.700000 0.700000 0.000000
3.800000 0.700000 0.000000
3.900000 0.700000 0.000000
4.000000 0.700000 0.000000
0.000000 0.800000 0.000000
0.100000 0.800000 0.000000
0.200000 0.800000 0.000000
0.300000 0.800000 0.000000
0.400000 0.800000 0.000000
0.500000 0.800000 0.000000
0.600000 0.800000 0.000000
0.700000 0.800000 0.000000
0.800000 0.800000 0.000000
0.900000 0.800000 0.000000
1.000000 0.800000 0.000000
1.100000 0.800000 0.000000
1.200000 0.800000 0.000000
1.300000 0.800000 0.000000
1.400000 0.800000 0.000000
1.500000 0.800000 0.000000
1.600000 0.800000 0.000000
1.700000 0.800000 0.000000
1.800000 0.800000 0.000000
1.900000 0.800000 0.000000
2.000000 0.800000 0.000000
2.100000 0.800000 0.000000
2.200000 0.800000 0.000000
2.300000 0.800000 0.000000
2.400000 0.800000 0.000000
2.500000 0.800000 0.000000
2.600000 0.800000 0.000000
2.700000 0.800000 0.000000
2.800000 0.800000 0.000000
2.900000 0.800000 0.000000
3.000000 0.800000 0.000000
3.100000 0.800000 0.000000
3.200000 0.800000 0.000000
3.300000 0.800000 0.000000
3.400000 0.800000 0.000000
3.500000 0.800000 0.000000
3.600000 0.800000 0.000000
[...]
CELL_DATA 16000
SCALARS pressure float 1
LOOKUP_TABLE default
34.6191
34.4422
34.1052
33.6416
33.0774
32.4286
31.7033
30.9024
30.0223
29.057
28.0005
26.8506
25.6113
24.2953
22.9241
21.5263
20.1338
18.7767
17.4792
16.2573
15.1177
14.0598
13.0768
12.1592
11.2956
10.4752
9.6881
8.9259
8.18184
7.45069
6.72849
6.01237
5.30025
4.59071
3.88278
3.17582
2.46944
1.76341
1.05767
0.35229
34.6747
34.4723
34.1214
33.6502
33.0817
32.4309
31.7046
30.9037
30.0241
29.0594
28.0036
26.854
25.6145
24.2976
22.9249
21.5254
20.1314
18.7733
17.4755
16.2538
15.1149
14.0577
13.0756
12.1587
11.2957
10.4756
9.68873
8.9266
8.18254
7.45133
6.72905
6.01283
5.30063
4.59101
3.88301
3.176
2.46957
1.7635
1.0577
0.352243
34.795
34.5559
34.1808
33.6942
33.1169
32.4618
31.735
30.9359
30.0596
29.0982
28.0441
26.8932
25.6481
24.3214
22.9354
21.5212
20.1134
18.7446
17.4404
16.2165
15.079
14.0256
13.0485
12.1368
11.2788
10.4631
9.67968
8.92028
8.17826
7.44852
6.72727
6.01175
5.30001
4.59068
3.88286
3.17595
2.46956
1.76348
1.05765
0.352145
34.958
34.6767
34.2716
33.7654
33.1768
32.5172
31.791
30.9964
30.1265
29.1711
28.12
26.9662
25.7105
24.3649
22.9538
21.5119
20.0784
18.6898
17.3737
16.1459
15.0111
13.9648
12.997
12.0953
11.2465
10.4388
9.662
8.90774
8.1696
7.44269
6.72345
6.00932
5.29852
4.58981
3.88238
3.17569
2.46943
1.7634
1.05757
0.35206
35.1427
34.8193
34.3827
33.8556
33.2552
32.5919
31.8684
31.0812
30.2211
29.2748
28.2282
27.0703
25.7991
24.4261
22.9785
21.4964
20.0259
18.6092
17.2767
16.0442
14.9138
13.8782
12.9241
12.0365
11.201
10.4047
9.6371
8.89006
8.15735
7.43441
6.71799
6.00582
5.29633
4.5885
3.88163
3.17529
2.46922
1.76329
1.05749
0.352008
35.3298
34.9682
34.502
33.9549
33.3441
32.6785
31.96
31.183
30.3356
29.4012
28.3607
27.1984
25.9083
24.5012
23.0076
21.475
19.9585
18.5074
17.1555
15.9182
14.7945
13.7727
12.8358
11.9658
11.1464
10.3639
9.60744
8.86904
8.14279
7.42456
6.71148
6.00163
5.29371
4.58692
3.88071
3.17478
2.46896
1.76316
1.05743
0.35199
35.5023
35.1086
34.6168
34.0527
33.4334
32.7674
32.0554
31.2903
30.4578
29.5371
28.5043
27.3379
26.0276
24.583
23.0385
21.4498
19.8826
18.3943
17.0223
15.781
14.6657
13.6597
12.7419
11.8911
11.0891
10.3212
9.5765
8.84715
8.12767
7.41434
6.70473
5.99728
5.29099
4.58527
3.87975
3.17426
2.46869
1.76304
1.05739
0.352
35.6455
35.227
34.7153
34.138
33.5127
32.8476
32.1426
31.3895
30.5716
29.6647
28.6401
27.4708
26.1419
24.6614
23.0675
21.4245
19.8085
18.285
16.8948
15.6509
14.5445
13.5542
12.6548
11.8222
11.0364
10.2821
9.5483
8.82727
8.11395
7.40509
6.69863
5.99335
5.28853
4.58378
3.87889
3.17378
2.46845
1.76294
1.05737
0.352026
35.7479
35.3126
34.7873
34.2011
33.572
32.9082
32.2093
31.466
30.6601
29.7646
28.7472
27.5762
26.2329
24.724
23.0905
21.4037
19.7486
18.1974
16.7934
15.5482
14.4496
13.4722
12.5874
11.7691
10.9961
10.2523
9.52683
8.81216
8.10356
7.39809
6.69402
5.99039
5.28668
4.58265
3.87824
3.17343
2.46827
1.76287
1.05736
0.352053
35.8012
35.3574
34.8253
34.2346
33.6038
32.9409
32.2455
31.5077
30.7085
29.8196
28.8064
27.6348
26.2837
24.759
23.1033
21.3919
19.715
18.1485
16.7371
15.4915
14.3974
13.4273
12.5507
11.7403
10.9742
10.2362
9.51526
8.80404
8.09798
7.39434
6.69156
5.98881
5.28569
4.58206
3.87789
3.17324
2.46818
1.76283
1.05736
0.35207
35.8012
35.3574
34.8253
34.2347
33.6038
32.941
32.2455
31.5077
30.7086
29.8197
28.8064
27.6348
26.2837
24.759
23.1033
21.3919
19.715
18.1486
16.7372
15.4916
14.3975
13.4274
12.5509
11.7405
10.9743
10.2363
9.51534
8.80411
8.09804
7.39439
6.6916
5.98884
5.28571
4.58207
3.8779
3.17325
2.46819
1.76284
1.05736
0.352071
35.748
35.3126
34.7874
34.2012
33.5721
32.9083
32.2094
31.4661
30.6602
29.7647
28.7472
27.5763
26.2329
24.724
23.0905
21.4037
19.7488
18.1977
16.7937
15.5486
14.45
13.4726
12.5879
11.7695
10.9964
10.2526
9.52708
8.81237
8.10373
7.39823
6.69414
5.99048
5.28674
4.5827
3.87827
3.17345
2.46829
1.76288
1.05737
0.352055
35.6457
35.2271
34.7155
34.1382
33.5128
32.8477
32.1428
31.3897
30.5718
29.6649
28.6402
27.4709
26.1419
24.6614
23.0675
21.4246
19.8087
18.2854
16.8953
15.6515
14.5451
13.5549
12.6554
11.8228
11.0369
10.2826
9.54871
8.82761
8.11423
7.40532
6.69881
5.99349
5.28864
4.58386
3.87895
3.17382
2.46848
1.76295
1.05738
0.352029
35.5025
35.1087
34.617
34.0529
33.4336
32.7676
32.0556
31.2906
30.458
29.5373
28.5044
27.338
26.0276
24.583
23.0385
21.45
19.883
18.3949
17.023
15.7819
14.6666
13.6606
12.7427
11.8919
11.0898
10.3218
9.57703
8.8476
8.12804
7.41464
6.70497
5.99747
5.29113
4.58537
3.87983
3.17431
2.46872
1.76306
1.0574
0.352004
35.33
34.9684
34.5022
33.9551
33.3443
32.6788
31.9602
31.1832
30.3359
29.4014
28.3609
27.1985
25.9084
24.5012
23.0078
21.4753
19.959
18.5081
17.1564
15.9192
14.7955
13.7737
12.8368
11.9668
11.1473
10.3646
9.60808
8.86957
8.14323
7.42492
6.71177
6.00185
5.29388
4.58704
3.8808
3.17485
2.469
1.76318
1.05744
0.351994
35.1429
34.8195
34.383
33.8558
33.2555
32.5921
31.8687
31.0815
30.2213
29.275
28.2283
27.0705
25.7993
24.4263
22.9788
21.4968
20.0265
18.61
17.2777
16.0453
14.915
13.8793
12.9252
12.0376
11.2019
10.4055
9.63781
8.89065
8.15783
7.4348
6.7183
6.00606
5.29652
4.58863
3.88172
3.17535
2.46926
1.76331
1.0575
0.352011
34.9582
34.6769
34.2719
33.7657
33.177
32.5174
31.7913
30.9967
30.1267
29.1714
28.1202
26.9664
25.7106
24.3651
22.9541
21.5124
20.0791
18.6907
17.3748
16.1471
15.0123
13.966
12.9982
12.0964
11.2475
10.4397
9.66274
8.90836
8.17011
7.4431
6.72378
6.00957
5.29871
4.58995
3.88247
3.17576
2.46947
1.76342
1.05758
0.352062
34.7952
34.5562
34.181
33.6945
33.1171
32.4621
31.7353
30.9362
30.0598
29.0984
28.0443
26.8934
25.6483
24.3216
22.9358
21.5218
20.1142
18.7456
17.4415
16.2177
15.0802
14.0268
13.0497
12.138
11.2798
10.464
9.68043
8.9209
8.17877
7.44893
6.72759
6.012
5.30019
4.59081
3.88295
3.176
2.46959
1.7635
1.05766
0.352145
34.675
34.4726
34.1216
33.6504
33.082
32.4311
31.7049
30.9039
30.0243
29.0597
28.0039
26.8543
25.6147
24.2979
22.9253
21.526
20.1321
18.7742
17.4765
16.2549
15.1161
14.0589
13.0768
12.1598
11.2967
10.4765
9.68946
8.92721
8.18304
7.45173
6.72936
6.01307
5.3008
4.59113
3.88309
3.17605
2.46959
1.76351
1.0577
0.35224
34.6193
34.4425
34.1054
33.6419
33.0776
32.4289
31.7035
30.9026
30.0226
29.0572
28.0008
26.8508
25.6115
24.2956
22.9245
21.5269
20.1345
18.7776
17.4803
16.2584
15.1189
14.0609
13.078
12.1602
11.2965
10.476
9.6888
8.92648
8.18232
7.45107
6.72879
6.01259
5.30041
4.59082
3.88285
3.17586
2.46946
1.76341
1.05767
0.352284
34.6747
34.4723
34.1214
33.6502
33.0817
32.4309
31.7046
30.9037
30.0241
29.0594
28.0036
26.854
25.6145
24.2976
22.9249
21.5254
20.1314
18.7733
17.4755
16.2538
15.1149
14.0577
13.0757
12.1587
11.2957
10.4757
9.68874
8.92661
8.18254
7.45134
6.72906
6.01284
5.30063
4.59101
3.88301
3.176
2.46957
1.7635
1.0577
0.352243
34.7184
34.4777
34.1078
33.6279
33.0552
32.4016
31.673
30.8696
29.9879
29.022
27.9665
26.8196
25.5855
24.2766
22.9141
21.5257
20.1424
18.7935
17.5024
16.2845
15.1468
14.0886
13.104
12.1835
11.3166
10.4928
9.70237
8.93721
8.19062
7.45737
6.73349
6.01604
5.30291
4.59262
3.88413
3.17677
2.47011
1.76388
1.05796
0.352316
34.8347
34.5479
34.1492
33.6518
33.0689
32.4097
31.6786
30.8747
29.9937
29.0291
27.9749
26.8283
25.5931
24.2816
22.9152
21.5225
20.1354
18.784
17.4921
16.2749
15.1388
14.0828
13.1002
12.1816
11.3162
10.4933
9.70352
8.93865
8.19213
7.4588
6.73477
6.01714
5.30382
4.59335
3.8847
3.17722
2.47044
1.76411
1.05808
0.352299
35.0008
34.6622
34.2293
33.7098
33.1137
32.4479
31.715
30.9128
30.0353
29.0744
28.0219
26.8735
25.6313
24.3076
22.9248
21.5142
20.1108
18.7472
17.4485
16.2297
15.0961
14.0453
13.0692
12.1572
11.2977
10.48
9.69421
8.93241
8.18812
7.45636
6.73339
6.01644
5.30354
4.59331
3.88479
3.17736
2.47058
1.76422
1.05814
0.352282
35.1925
34.802
34.3334
33.7905
33.1806
32.5086
31.7755
30.9773
30.106
29.1509
28.1011
26.949
25.6949
24.3505
22.9405
21.5002
20.0698
18.686
17.3758
16.154
15.0243
13.9817
13.0159
12.1145
11.2649
10.4556
9.67664
8.92014
8.1798
7.4509
6.72992
6.01432
5.30232
4.59267
3.8845
3.17726
2.47059
1.76426
1.05817
0.352292
35.3878
34.9499
34.4478
33.8826
33.2599
32.5831
31.8515
31.0594
30.1967
29.2496
28.2034
27.0469
25.7773
24.406
22.9602
21.481
20.0154
18.6056
17.281
16.056
14.9316
13.8997
12.9472
12.0595
11.2225
10.4239
9.65367
8.90394
8.16867
7.44346
6.72508
6.01128
5.30049
4.59161
3.88394
3.177
2.47049
1.76424
1.05819
0.352332
35.5681
35.09
34.5589
33.9745
33.3411
32.6611
31.9326
31.1483
30.2956
29.3579
28.3164
27.1555
25.8692
24.4677
22.9816
21.4584
19.9535
18.5152
17.1754
15.9475
14.8297
13.8102
12.8726
11.9999
11.1765
10.3896
9.62876
8.88631
8.15652
7.43528
6.71972
6.00788
5.29839
4.59038
3.88326
3.17665
2.47034
1.76421
1.05821
0.352392
35.7179
35.2084
34.6545
34.0551
33.4137
32.7321
32.0074
31.231
30.3886
29.4605
28.4242
27.2599
25.9579
24.5275
23.002
21.4358
19.8928
18.4273
17.0737
15.844
14.7332
13.7259
12.8027
11.9442
11.1338
10.3577
9.60565
8.86997
8.14523
7.42767
6.71472
6.00468
5.29641
4.5892
3.8826
3.17631
2.47019
1.76416
1.05824
0.352459
35.8248
35.2939
34.7245
34.1148
33.4682
32.786
32.0648
31.2951
30.4611
29.541
28.5095
27.343
26.029
24.5755
23.0183
21.4172
19.8436
18.3568
16.9927
15.7623
14.6576
13.6602
12.7484
11.9012
11.1008
10.3332
9.58791
8.85743
8.13657
7.42183
6.71088
6.00222
5.29489
4.58829
3.88208
3.17604
2.47007
1.76413
1.05825
0.352514
35.8805
35.3387
34.7614
34.1465
33.4973
32.8151
32.0959
31.3301
30.5009
29.5854
28.5567
27.3893
26.0688
24.6025
23.0274
21.4067
19.8158
18.3173
16.9477
15.7171
14.616
13.6243
12.7189
11.8779
11.083
10.3199
9.57832
8.85066
8.13191
7.41869
6.70881
6.00089
5.29407
4.5878
3.8818
3.1759
2.47
1.76411
1.05826
0.352546
35.8805
35.3388
34.7615
34.1465
33.4974
32.8151
32.096
31.3301
30.5009
29.5854
28.5567
27.3893
26.0688
24.6025
23.0274
21.4067
19.8159
18.3174
16.9478
15.7172
14.6161
13.6244
12.719
11.878
11.0831
10.32
9.5784
8.85073
8.13196
7.41873
6.70885
6.00092
5.29409
4.58782
3.88181
3.1759
2.47001
1.76411
1.05826
0.352546
35.8249
35.294
34.7246
34.1148
33.4682
32.7861
32.0649
31.2952
30.4612
29.5411
28.5095
27.3431
26.029
24.5755
23.0183
21.4173
19.8437
18.357
16.993
15.7626
14.658
13.6606
12.7488
11.9016
11.1011
10.3335
9.58814
8.85763
8.13674
7.42197
6.71099
6.0023
5.29495
4.58834
3.88211
3.17606
2.47008
1.76414
1.05825
0.352514
35.718
35.2085
34.6547
34.0552
33.4138
32.7322
32.0075
31.2312
30.3888
29.4606
28.4243
27.26
25.9579
24.5275
23.0021
21.436
19.893
18.4277
17.0742
15.8446
14.7338
13.7265
12.8033
11.9448
11.1343
10.3581
9.60603
8.87028
8.14549
7.42788
6.71489
6.00481
5.29652
4.58928
3.88265
3.17635
2.47021
1.76418
1.05824
0.352457
35.5683
35.0901
34.5591
33.9746
33.3413
32.6613
31.9328
31.1485
30.2958
29.3581
28.3166
27.1556
25.8692
24.4678
22.9817
21.4586
19.9539
18.5157
17.176
15.9483
14.8305
13.811
12.8734
12.0006
11.1772
10.3901
9.62925
8.88673
8.15687
7.43556
6.71995
6.00805
5.29853
4.59048
3.88333
3.1767
2.47037
1.76422
1.05822
0.352391
35.388
34.9501
34.448
33.8828
33.2601
32.5833
31.8517
31.0597
30.1969
29.2498
28.2036
27.0471
25.7775
24.4061
22.9604
21.4813
20.0159
18.6063
17.2818
16.0569
14.9325
13.9007
12.9482
12.0604
11.2233
10.4246
9.65427
8.90444
8.16909
7.44379
6.72535
6.0115
5.30065
4.59173
3.88403
3.17706
2.47053
1.76426
1.0582
0.35233
35.1927
34.8023
34.3337
33.7907
33.1808
32.5089
31.7758
30.9775
30.1062
29.1511
28.1013
26.9492
25.6951
24.3507
22.9408
21.5006
20.0704
18.6868
17.3767
16.155
15.0254
13.9827
13.0169
12.1154
11.2658
10.4563
9.6773
8.9207
8.18026
7.45127
6.73022
6.01456
5.3025
4.5928
3.88459
3.17732
2.47062
1.76428
1.05817
0.35229
35.0011
34.6625
34.2295
33.71
33.1139
32.4482
31.7153
30.9131
30.0356
29.0746
28.0222
26.8737
25.6315
24.3078
22.9252
21.5147
20.1115
18.7481
17.4495
16.2307
15.0973
14.0464
13.0703
12.1582
11.2987
10.4808
9.69491
8.933
8.18861
7.45676
6.7337
6.01668
5.30372
4.59344
3.88489
3.17742
2.47062
1.76424
1.05814
0.352279
34.8349
34.5481
34.1495
33.6521
33.0692
32.41
31.6788
30.875
29.994
29.0294
27.9751
26.8285
25.5933
24.2819
22.9156
21.523
20.1361
18.7849
17.4931
16.276
15.14
14.0839
13.1014
12.1827
11.3171
10.4942
9.70423
8.93924
8.19262
7.4592
6.73508
6.01738
5.304
4.59347
3.88479
3.17727
2.47047
1.76412
1.05808
0.352295
34.7187
34.4779
34.1081
33.6282
33.0555
32.4019
31.6732
30.8699
29.9882
29.0222
27.9668
26.8199
25.5858
24.277
22.9145
21.5263
20.1431
18.7944
17.5034
16.2857
15.148
14.0898
13.1051
12.1845
11.3175
10.4936
9.70306
8.93779
8.1911
7.45775
6.73379
6.01627
5.30308
4.59274
3.88421
3.17682
2.47013
1.76389
1.05796
0.352311
34.675
34.4726
34.1216
33.6504
33.082
32.4311
31.7049
30.904
30.0243
29.0597
28.0039
26.8543
25.6147
24.2979
22.9253
21.526
20.1321
18.7742
17.4765
16.2549
15.116
14.0589
13.0767
12.1597
11.2966
10.4764
9.68941
8.92716
8.183
7.4517
6.72933
6.01304
5.30078
4.59112
3.88308
3.17604
2.46958
1.7635
1.05769
0.352233
34.795
34.5559
34.1808
33.6942
33.1169
32.4618
31.735
30.9359
30.0595
29.0981
28.0441
26.8931
25.6481
24.3213
22.9354
21.5212
20.1134
18.7447
17.4404
16.2165
15.079
14.0256
13.0485
12.1369
11.2788
10.4631
9.6797
8.92029
8.17827
7.44853
6.72727
6.01175
5.30001
4.59068
3.88286
3.17595
2.46956
1.76348
1.05765
0.352146
34.8347
34.5479
34.1492
33.6518
33.0689
32.4097
31.6785
30.8747
29.9937
29.0291
27.9749
26.8283
25.5931
24.2816
22.9152
21.5225
20.1354
18.784
17.4921
16.2749
15.1389
14.0828
13.1003
12.1817
11.3162
10.4933
9.70353
8.93866
8.19213
7.45881
6.73477
6.01714
5.30382
4.59335
3.88471
3.17722
2.47044
1.76411
1.05808
0.352299
34.9467
34.6092
34.1778
33.6604
33.0655
32.3992
31.6638
30.8575
29.9756
29.0112
27.9582
26.8137
25.581
24.2723
22.9088
21.5193
20.1358
18.7884
17.5004
16.2866
15.1529
14.0981
13.1158
12.1965
11.3297
10.5051
9.71349
8.94686
8.19872
7.46399
6.73878
6.02019
5.3061
4.59504
3.88595
3.17812
2.47109
1.76456
1.05835
0.35233
35.1131
34.719
34.2495
33.7076
33.0976
32.4231
31.6843
30.8782
29.9985
29.0372
27.9864
26.8415
25.6045
24.2871
22.9118
21.5095
20.1151
18.7604
17.4696
16.2569
15.127
14.0773
13.1002
12.1856
11.3227
10.5011
9.71157
8.94632
8.19903
7.46476
6.73974
6.02117
5.30702
4.59584
3.88662
3.17866
2.47151
1.76487
1.05853
0.35236
35.3093
34.8578
34.3489
33.7809
33.1553
32.473
31.7326
30.9293
30.0549
29.0993
28.0516
26.9043
25.6572
24.3213
22.9211
21.492
20.0741
18.7033
17.4049
16.1923
15.068
14.0269
13.0595
12.1542
11.2995
10.4846
9.70028
8.9389
8.19438
7.46202
6.73826
6.0205
5.30683
4.59592
3.88683
3.17892
2.47176
1.76507
1.05868
0.352424
35.5117
35.0068
34.4607
33.8681
33.228
32.5394
31.7992
31.0011
30.1349
29.1874
28.1443
26.9938
25.7324
24.3701
22.9344
21.4672
20.0161
18.6226
17.3138
16.1015
14.985
13.9557
13.0015
12.1089
11.2654
10.4597
9.68271
8.92687
8.1864
7.45691
6.73513
6.01868
5.30586
4.59548
3.8867
3.17895
2.47187
1.7652
1.05879
0.352521
35.6999
35.1492
34.5708
33.9568
33.3044
32.6114
31.8733
31.0823
30.2262
29.2887
28.2517
27.0985
25.8211
24.428
22.95
21.4372
19.947
18.5276
17.2078
15.9969
14.89
13.8747
12.9356
12.0574
11.2264
10.4312
9.66239
8.91278
8.1769
7.45069
6.73119
6.01629
5.30449
4.59476
3.88637
3.17885
2.47189
1.76529
1.0589
0.35264
35.8569
35.2702
34.6661
34.0353
33.3737
32.6781
31.9432
31.1598
30.3142
29.3876
28.3576
27.203
25.9107
24.4871
22.9659
21.4062
19.8764
18.4318
17.1025
15.8944
14.798
13.7967
12.8725
12.0082
11.1894
10.404
9.64297
8.89926
8.16773
7.44463
6.72731
6.01389
5.30307
4.59397
3.88598
3.1787
2.47187
1.76533
1.05898
0.352758
35.9693
35.3578
34.7361
34.0938
33.4261
32.7292
31.9974
31.2207
30.384
29.4666
28.4434
27.2888
25.9853
24.5368
22.9792
21.3798
19.817
18.3526
17.0167
15.8119
14.7247
13.7352
12.823
11.9699
11.1605
10.3828
9.62785
8.88873
8.16056
7.43988
6.72425
6.01199
5.30194
4.59333
3.88565
3.17856
2.47184
1.76536
1.05905
0.352852
36.0279
35.4038
34.7731
34.125
33.4542
32.757
32.027
31.2541
30.4226
29.5107
28.4916
27.3374
26.0282
24.5658
22.987
21.3644
19.7826
18.3072
16.9682
15.7658
14.6841
13.7013
12.7959
11.9489
11.1447
10.3713
9.61964
8.883
8.15667
7.4373
6.72259
6.01095
5.30132
4.59298
3.88547
3.17848
2.47182
1.76538
1.05908
0.352905
36.0279
35.4038
34.7732
34.125
33.4543
32.757
32.027
31.2541
30.4226
29.5107
28.4916
27.3374
26.0282
24.5658
22.987
21.3644
19.7827
18.3073
16.9683
15.7659
14.6842
13.7014
12.796
11.949
11.1448
10.3714
9.61971
8.88307
8.15673
7.43735
6.72263
6.01098
5.30134
4.593
3.88549
3.17849
2.47183
1.76538
1.05908
0.352904
35.9694
35.3579
34.7362
34.0939
33.4261
32.7293
31.9975
31.2207
30.3841
29.4667
28.4435
27.2888
25.9853
24.5368
22.9792
21.3799
19.8172
18.3528
17.017
15.8123
14.7251
13.7356
12.8234
11.9702
11.1608
10.3831
9.62808
8.88892
8.16072
7.44001
6.72436
6.01207
5.302
4.59338
3.88569
3.17859
2.47186
1.76537
1.05905
0.35285
35.8571
35.2703
34.6663
34.0354
33.3738
32.6782
31.9433
31.16
30.3144
29.3877
28.3578
27.2031
25.9107
24.4871
22.9659
21.4063
19.8767
18.4322
17.1031
15.895
14.7986
13.7973
12.8731
12.0088
11.1898
10.4044
9.64333
8.89957
8.16798
7.44484
6.72748
6.01402
5.30318
4.59405
3.88604
3.17874
2.4719
1.76535
1.05899
0.352754
35.7001
35.1494
34.571
33.9569
33.3046
32.6116
31.8735
31.0826
30.2264
29.289
28.2519
27.0986
25.8212
24.4281
22.9502
21.4374
19.9474
18.5281
17.2085
15.9976
14.8908
13.8755
12.9363
12.0581
11.2271
10.4318
9.66286
8.91318
8.17723
7.45096
6.73141
6.01646
5.30462
4.59485
3.88644
3.17891
2.47193
1.7653
1.0589
0.352634
35.5119
35.007
34.4609
33.8683
33.2282
32.5396
31.7995
31.0014
30.1352
29.1876
28.1445
26.994
25.7325
24.3703
22.9346
21.4675
20.0166
18.6232
17.3146
16.1024
14.9859
13.9566
13.0024
12.1097
11.2661
10.4604
9.68328
8.92735
8.1868
7.45723
6.73539
6.01888
5.30602
4.5956
3.88678
3.17901
2.47191
1.76523
1.0588
0.352515
35.3096
34.858
34.3491
33.7812
33.1556
32.4733
31.7329
30.9295
30.0552
29.0995
28.0519
26.9046
25.6574
24.3215
22.9214
21.4924
20.0747
18.704
17.4058
16.1933
15.069
14.028
13.0605
12.1552
11.3003
10.4853
9.70092
8.93944
8.19483
7.46238
6.73855
6.02072
5.307
4.59605
3.88692
3.17898
2.4718
1.76509
1.05868
0.352416
35.1134
34.7192
34.2498
33.7078
33.0979
32.4234
31.6846
30.8785
29.9988
29.0375
27.9867
26.8417
25.6047
24.2874
22.9122
21.51
20.1157
18.7612
17.4706
16.258
15.1281
14.0784
13.1012
12.1866
11.3236
10.5019
9.71225
8.94689
8.1995
7.46514
6.74004
6.0214
5.3072
4.59597
3.88671
3.17873
2.47155
1.76489
1.05853
0.352352
34.947
34.6094
34.178
33.6607
33.0658
32.3995
31.664
30.8578
29.9758
29.0115
27.9585
26.8139
25.5812
24.2726
22.9092
21.5198
20.1366
18.7893
17.5014
16.2877
15.1541
14.0993
13.1169
12.1975
11.3306
10.5059
9.71419
8.94744
8.1992
7.46438
6.73908
6.02042
5.30628
4.59516
3.88603
3.17817
2.47112
1.76457
1.05835
0.35232
34.8349
34.5481
34.1495
33.6521
33.0692
32.41
31.6788
30.875
29.994
29.0294
27.9751
26.8285
25.5933
24.2819
22.9156
21.523
20.1361
18.7849
17.4932
16.2761
15.14
14.084
13.1014
12.1827
11.3171
10.4941
9.70421
8.93922
8.19259
7.45917
6.73506
6.01735
5.30398
4.59346
3.88478
3.17726
2.47046
1.76411
1.05808
0.352288
34.7952
34.5562
34.181
33.6945
33.1171
32.4621
31.7353
30.9362
30.0599
29.0984
28.0443
26.8934
25.6483
24.3216
22.9358
21.5218
20.1142
18.7456
17.4415
16.2177
15.0802
14.0268
13.0496
12.1379
11.2797
10.4639
9.68034
8.92082
8.17869
7.44886
6.72753
6.01194
5.30014
4.59077
3.88292
3.17597
2.46956
1.76347
1.05763
0.352129
34.958
34.6767
34.2716
33.7654
33.1768
32.5172
31.791
30.9964
30.1264
29.171
28.1199
26.9661
25.7103
24.3647
22.9537
21.5118
20.0784
18.6899
17.3738
16.146
15.0112
13.9648
12.9971
12.0953
11.2466
10.4389
9.66203
8.90776
8.16961
7.4427
6.72346
6.00933
5.29852
4.58981
3.88238
3.1757
2.46943
1.7634
1.05757
0.352061
35.0008
34.6622
34.2293
33.7098
33.1137
32.4479
31.715
30.9128
30.0353
29.0743
28.0218
26.8734
25.6312
24.3075
22.9248
21.5142
20.1108
18.7473
17.4485
16.2297
15.0962
14.0453
13.0692
12.1572
11.2978
10.48
9.69423
8.93242
8.18813
7.45637
6.73339
6.01644
5.30354
4.59331
3.8848
3.17736
2.47058
1.76422
1.05814
0.352282
35.1131
34.719
34.2495
33.7076
33.0976
32.4231
31.6843
30.8782
29.9985
29.0372
27.9864
26.8414
25.6044
24.287
22.9118
21.5095
20.1151
18.7604
17.4696
16.2569
15.127
14.0773
13.1002
12.1856
11.3227
10.5011
9.71158
8.94633
8.19904
7.46476
6.73974
6.02117
5.30702
4.59584
3.88662
3.17867
2.47151
1.76487
1.05853
0.35236
35.2813
34.8268
34.316
33.7471