# vtk DataFile Version 2.0
I need something to put here
ASCII

DATASET STRUCTURED_GRID
DIMENSIONS 15 11 21
POINTS 3465 float
0.000000 0.000000 0.000000
0.100000 0.000000 0.000000
0.200000 0.000000 0.000000
0.300000 0.000000 0.000000
0.400000 0.000000 0.000000
0.500000 0.000000 0.000000
0.600000 0.000000 0.000000
0.700000 0.000000 0.000000
0.800000 0.000000 0.000000
0.900000 0.000000 0.000000
1.000000 0.000000 0.000000
1.100000 0.000000 0.000000
1.200000 0.000000 0.000000
1.300000 0.000000 0.000000
1.400000 0.000000 0.000000
0.000000 0.100000 0.000000
0.100000 0.100000 0.000000
0.200000 0.100000 0.000000
0.300000 0.100000 0.000000
0.400000 0.100000 0.000000
0.500000 0.100000 0.000000
0.600000 0.100000 0.000000
0.700000 0.100000 0.000000
0.800000 0.100000 0.000000
0.900000 0.100000 0.000000
1.000000 0.100000 0.000000
1.100000 0.100000 0.000000
1.200000 0.100000 0.000000
1.300000 0.100000 0.000000
1.400000 0.100000 0.000000
0.000000 0.200000 0.000000
0.100000 0.200000 0.000000
0.200000 0.200000 0.000000
0.300000 0.200000 0.000000
0.400000 0.200000 0.000000
0.500000 0.200000 0.000000
0.600000 0.200000 0.000000
0.700000 0.200000 0.000000
0.800000 0.200000 0.000000
0.900000 0.200000 0.000000
1.000000 0.200000 0.000000
1.100000 0.200000 0.000000
1.200000 0.200000 0.000000
1.300000 0.200000 0.000000
1.400000 0.200000 0.000000
0.000000 0.300000 0.000000
0.100000 0.300000 0.000000
0.200000 0.300000 0.000000
0.300000 0.300000 0.000000
0.400000 0.300000 0.000000
0.500000 0.300000 0.000000
0.600000 0.300000 0.000000
0.700000 0.300000 0.000000
0.800000 0.300000 0.000000
0.900000 0.300000 0.000000
1.000000 0.300000 0.000000
1.100000 0.300000 0.000000
1.200000 0.300000 0.000000
1.300000 0.300000 0.000000
1.400000 0.300000 0.000000
0.000000 0.400000 0.000000
0.100000 0.400000 0.000000
0.200000 0.400000 0.000000
0.300000 0.400000 0.000000
0.400000 0.400000 0.000000
0.500000 0.400000 0.000000
0.600000 0.400000 0.000000
0.700000 0.400000 0.000000
0.800000 0.400000 0.000000
0.900000 0.400000 0.000000
1.000000 0.400000 0.000000
1.100000 0.400000 0.000000
1.200000 0.400000 0.000000
1.300000 0.400000 0.000000
1.400000 0.400000 0.000000
0.000000 0.500000 0.000000
0.100000 0.500000 0.000000
0.200000 0.500000 0.000000
0.300000 0.500000 0.000000
0.400000 0.500000 0.000000
0.500000 0.500000 0.000000
0.600000 0.500000 0.000000
0.700000 0.500000 0.000000
0.800000 0.500000 0.000000
0.900000 0.500000 0.000000
1.000000 0.500000 0.000000
1.100000 0.500000 0.000000
1.200000 0.500000 0.000000
1.300000 0.500000 0.000000
1.400000 0.500000 0.000000
0.000000 0.600000 0.000000
0.100000 0.600000 0.000000
0.200000 0.600000 0.000000
0.300000 0.600000 0.000000
0.400000 0.600000 0.000000
0.500000 0.600000 0.000000
0.600000 0.600000 0.000000
0.700000 0.600000 0.000000
0.800000 0.600000 0.000000
0.900000 0.600000 0.000000
1.000000 0.600000 0.000000
1.100000 0.600000 0.000000
1.200000 0.600000 0.000000
1.300000 0.600000 0.000000
1.400000 0.600000 0.000000
0.000000 0.700000 0.000000
0.100000 0.700000 0.000000
0.200000 0.700000 0.000000
0.300000 0.700000 0.000000
0.400000 0.700000 0.000000
0.500000 0.700000 0.000000
0.600000 0.700000 0.000000
0.700000 0.700000 0.000000
0.800000 0.700000 0.000000
0.900000 0.700000 0.000000
1.000000 0.700000 0.000000
1.100000 0.700000 0.000000
1.200000 0.700000 0.000000
1.300000 0.700000 0.000000
1.400000 0.700000 0.000000
0.000000 0.800000 0.000000
0.100000 0.800000 0.000000
0.200000 0.800000 0.000000
0.300000 0.800000 0.000000
0.400000 0.800000 0.000000
0.500000 0.800000 0.000000
0.600000 0.800000 0.000000
0.700000 0.800000 0.000000
0.800000 0.800000 0.000000
0.900000 0.800000 0.000000
1.000000 0.800000 0.000000
1.100000 0.800000 0.000000
1.200000 0.800000 0.000000
1.300000 0.800000 0.000000
1.400000 0.800000 0.000000
0.000000 0.900000 0.000000
0.100000 0.900000 0.000000
0.200000 0.900000 0.000000
0.300000 0.900000 0.000000
0.400000 0.900000 0.000000
0.500000 0.900000 0.000000
0.600000 0.900000 0.000000
0.700000 0.900000 0.000000
0.800000 0.900000 0.000000
0.900000 0.900000 0.000000
1.000000 0.900000 0.000000
1.100000 0.900000 0.000000
1.200000 0.900000 0.000000
1.300000 0.900000 0.000000
1.400000 0.900000 0.000000
0.000000 1.000000 0.000000
0.100000 1.000000 0.000000
0.200000 1.000000 0.000000
0.300000 1.000000 0.000000
0.400000 1.000000 0.000000
0.500000 1.000000 0.000000
0.600000 1.000000 0.000000
0.700000 1.000000 0.000000
0.800000 1.000000 0.000000
0.900000 1.000000 0.000000
1.000000 1.000000 0.000000
1.100000 1.000000 0.000000
1.200000 1.000000 0.000000
1.300000 1.000000 0.000000
1.400000 1.000000 0.000000
0.000000 0.000000 0.100000
0.100000 0.000000 0.100000
0.200000 0.000000 0.100000
0.300000 0.000000 0.100000
0.400000 0.000000 0.100000
0.500000 0.000000 0.100000
0.600000 0.000000 0.100000
0.700000 0.000000 0.100000
0.800000 0.000000 0.100000
0.900000 0.000000 0.100000
1.000000 0.000000 0.100000
1.100000 0.000000 0.100000
1.200000 0.000000 0.100000
1.300000 0.000000 0.100000
1.400000 0.000000 0.100000
0.000000 0.100000 0.100000
0.100000 0.100000 0.100000
0.200000 0.100000 0.100000
0.300000 0.100000 0.100000
0.400000 0.100000 0.100000
0.500000 0.100000 0.100000
0.600000 0.100000 0.100000
0.700000 0.100000 0.100000
0.800000 0.100000 0.100000
0.900000 0.100000 0.100000
1.000000 0.100000 0.100000
1.100000 0.100000 0.100000
1.200000 0.100000 0.100000
1.300000 0.100000 0.100000
1.400000 0.100000 0.100000
0.000000 0.200000 0.100000
0.100000 0.200000 0.100000
0.200000 0.200000 0.100000
0.300000 0.200000 0.100000
0.400000 0.200000 0.100000
0.500000 0.200000 0.100000
0.600000 0.200000 0.100000
0.700000 0.200000 0.100000
0.800000 0.200000 0.100000
0.900000 0.200000 0.100000
1.000000 0.200000 0.100000
1.100000 0.200000 0.100000
1.200000 0.200000 0.100000
1.300000 0.200000 0.100000
1.400000 0.200000 0.100000
0.000000 0.300000 0.100000
0.100000 0.300000 0.100000
0.200000 0.300000 0.100000
0.300000 0.300000 0.100000
0.400000 0.300000 0.100000
0.500000 0.300000 0.100000
0.600000 0.300000 0.100000
0.700000 0.300000 0.100000
0.800000 0.300000 0.100000
0.900000 0.300000 0.100000
1.000000 0.300000 0.100000
1.100000 0.300000 0.100000
1.200000 0.300000 0.100000
1.300000 0.300000 0.100000
1.400000 0.300000 0.100000
0.000000 0.400000 0.100000
0.100000 0.400000 0.100000
0.200000 0.400000 0.100000
0.300000 0.400000 0.100000
0.400000 0.400000 0.100000
0.500000 0.400000 0.100000
0.600000 0.400000 0.100000
0.700000 0.400000 0.100000
0.800000 0.400000 0.100000
0.900000 0.400000 0.100000
1.000000 0.400000 0.100000
1.100000 0.400000 0.100000
1.200000 0.400000 0.100000
1.300000 0.400000 0.100000
1.400000 0.400000 0.100000
0.000000 0.500000 0.100000
0.100000 0.500000 0.100000
0.200000 0.500000 0.100000
0.300000 0.500000 0.100000
0.400000 0.500000 0.100000
0.500000 0.500000 0.100000
0.600000 0.500000 0.100000
0.700000 0.500000 0.100000
0.800000 0.500000 0.100000
0.900000 0.500000 0.100000
1.000000 0.500000 0.100000
1.100000 0.500000 0.100000
1.200000 0.500000 0.100000
1.300000 0.500000 0.100000
1.400000 0.500000 0.100000
0.000000 0.600000 0.100000
0.100000 0.600000 0.100000
0.200000 0.600000 0.100000
0.300000 0.600000 0.100000
0.400000 0.600000 0.100000
0.500000 0.600000 0.100000
0.600000 0.600000 0.100000
0.700000 0.600000 0.100000
0.800000 0.600000 0.100000
0.900000 0.600000 0.100000
1.000000 0.600000 0.100000
1.100000 0.600000 0.100000
1.200000 0.600000 0.100000
1.300000 0.600000 0.100000
1.400000 0.600000 0.100000
0.000000 0.700000 0.100000
0.100000 0.700000 0.100000
0.200000 0.700000 0.100000
0.300000 0.700000 0.100000
0.400000 0.700000 0.100000
0.500000 0.700000 0.100000
0.600000 0.700000 0.100000
0.700000 0.700000 0.100000
0.800000 0.700000 0.100000
0.900000 0.700000 0.100000
1.000000 0.700000 0.100000
1.100000 0.700000 0.100000
1.200000 0.700000 0.100000
1.300000 0.700000 0.100000
1.400000 0.700000 0.100000
0.000000 0.800000 0.100000
0.100000 0.800000 0.100000
0.200000 0.800000 0.100000
0.300000 0.800000 0.100000
0.400000 0.800000 0.100000
0.500000 0.800000 0.100000
0.600000 0.800000 0.100000
0.700000 0.800000 0.100000
0.800000 0.800000 0.100000
0.900000 0.800000 0.100000
1.000000 0.800000 0.100000
1.100000 0.800000 0.100000
1.200000 0.800000 0.100000
1.300000 0.800000 0.100000
1.400000 0.800000 0.100000
0.000000 0.900000 0.100000
0.100000 0.900000 0.100000
0.200000 0.900000 0.100000
0.300000 0.900000 0.100000
0.400000 0.900000 0.100000
0.500000 0.900000 0.100000
0.600000 0.900000 0.100000
0.700000 0.900000 0.100000
0.800000 0.900000 0.100000
0.900000 0.900000 0.100000
1.000000 0.900000 0.100000
1.100000 0.900000 0.100000
1.200000 0.900000 0.100000
1.300000 0.900000 0.100000
1.400000 0.900000 0.100000
0.000000 1.000000 0.100000
0.100000 1.000000 0.100000
0.200000 1.000000 0.100000
0.300000 1.000000 0.100000
0.400000 1.000000 0.100000
0.500000 1.000000 0.100000
0.600000 1.000000 0.100000
0.700000 1.000000 0.100000
0.800000 1.000000 0.100000
0.900000 1.000000 0.100000
1.000000 1.000000 0.100000
1.100000 1.000000 0.100000
1.200000 1.000000 0.100000
1.300000 1.000000 0.100000
1.400000 1.000000 0.100000
0.000000 0.000000 0.200000
0.100000 0.000000 0.200000
0.200000 0.000000 0.200000
0.300000 0.000000 0.200000
0.400000 0.000000 0.200000
0.500000 0.000000 0.200000
0.600000 0.000000 0.200000
0.700000 0.000000 0.200000
0.800000 0.000000 0.200000
0.900000 0.000000 0.200000
1.000000 0.000000 0.200000
1.100000 0.000000 0.200000
1.200000 0.000000 0.200000
1.300000 0.000000 0.200000
1.400000 0.000000 0.200000
0.000000 0.100000 0.200000
0.100000 0.100000 0.200000
0.200000 0.100000 0.200000
0.300000 0.100000 0.200000
0.400000 0.100000 0.200000
0.500000 0.100000 0.200000
0.600000 0.100000 0.200000
0.700000 0.100000 0.200000
0.800000 0.100000 0.200000
0.900000 0.100000 0.200000
1.000000 0.100000 0.200000
1.100000 0.100000 0.200000
1.200000 0.100000 0.200000
1.300000 0.100000 0.200000
1.400000 0.100000 0.200000
0.000000 0.200000 0.200000
0.100000 0.200000 0.200000
0.200000 0.200000 0.200000
0.300000 0.200000 0.200000
0.400000 0.200000 0.200000
[...]
CELL_DATA 2800
SCALARS pressure float 1
LOOKUP_TABLE default
40.6181
37.4992
35.1604
33.4026
32.0056
30.8207
29.7544
28.746
27.7546
26.7516
25.7182
24.6439
23.5268
22.3726
42.9668
37.8582
35.0432
33.221
31.8556
30.7136
29.6822
28.6991
27.7253
26.7342
25.7086
24.6392
23.5249
22.3719
46.3259
38.8385
35.2063
33.1379
31.7235
30.5948
29.5926
28.639
27.6901
26.7182
25.7057
24.6437
23.5313
22.3759
49.8333
40.0919
35.5765
33.1822
31.6629
30.5153
29.5259
28.5951
27.6696
26.7172
25.7183
24.6625
23.549
22.386
53.1187
41.3902
36.0465
33.316
31.6692
30.4834
29.494
28.5785
27.6727
26.7379
25.7507
24.6983
23.5792
22.4027
56.0029
42.5982
36.5327
33.4939
31.7205
30.4899
29.4937
28.5885
27.6988
26.7792
25.8014
24.7493
23.6204
22.4251
58.3887
43.6346
36.9771
33.6781
31.7932
30.5203
29.5152
28.6172
27.7408
26.8341
25.8634
24.8092
23.6675
22.4505
60.2181
44.4483
37.3404
33.8401
31.8667
30.5592
29.5462
28.6536
27.7878
26.8914
25.9258
24.8681
23.7133
22.4747
61.4552
45.007
37.5962
33.9592
31.9252
30.5934
29.5748
28.686
27.8279
26.9388
25.9766
24.9154
23.7497
22.4936
62.0789
45.2911
37.7283
34.0223
31.9574
30.6134
29.5919
28.7051
27.851
26.9658
26.0052
24.942
23.77
22.5042
38.2486
36.8196
35.0788
33.4873
32.1124
30.9104
29.8213
28.7937
27.7881
26.7752
25.7348
24.6556
23.5348
22.3778
38.944
37.008
35.0485
33.4037
32.0328
30.8471
29.7726
28.7553
27.7562
26.7476
25.7109
24.6358
23.5199
22.3687
40.3411
37.6819
35.2803
33.4377
31.9954
30.793
29.7228
28.7162
27.7286
26.73
25.7009
24.631
23.5179
22.3674
41.9957
38.5966
35.6846
33.578
32.0183
30.7727
29.6937
28.6932
27.7166
26.7289
25.7081
24.6422
23.5286
22.3734
43.65
39.5782
36.1706
33.7879
32.0929
30.7894
29.6923
28.6928
27.7249
26.7472
25.7335
24.6694
23.5514
22.386
45.1588
40.5129
36.6655
34.0266
32.1991
30.8345
29.7152
28.7135
27.7524
26.783
25.7749
24.7101
23.5841
22.4041
46.4371
41.3272
37.1156
34.2588
32.3149
30.8944
29.7534
28.7484
27.7924
26.8301
25.8259
24.7586
23.6222
22.425
47.4328
41.9731
37.4829
34.4568
32.4206
30.9547
29.7957
28.7876
27.8356
26.8789
25.8774
24.8066
23.6595
22.4453
48.1128
42.4194
37.7414
34.6001
32.5004
31.0029
29.8311
28.8209
27.8718
26.919
25.9192
24.8453
23.6892
22.4612
48.4576
42.6472
37.8747
34.6752
32.5432
31.0297
29.8514
28.8401
27.8925
26.9419
25.9428
24.867
23.7059
22.4701
36.3272
35.672
34.5318
33.2732
32.0576
30.9244
29.862
28.8429
27.8382
26.8229
25.7781
24.6927
23.5638
22.397
36.4498
35.6928
34.4759
33.1956
31.9845
30.8622
29.8088
28.7952
27.7933
26.7801
25.7382
24.6579
23.5369
22.3805
36.9614
36.028
34.6277
33.2361
31.972
30.8299
29.7725
28.7617
27.765
26.7573
25.7208
24.6453
23.5284
22.3754
37.6964
36.5514
34.9189
33.369
32.0173
30.8339
29.7617
28.7496
27.7578
26.7568
25.726
24.6535
23.5364
22.3801
38.5069
37.1544
35.2833
33.5611
32.1071
30.8713
29.7775
28.761
27.7732
26.7786
25.7528
24.6811
23.5593
22.3933
39.2907
37.7547
35.6645
33.7782
32.2228
30.9326
29.8149
28.7925
27.808
26.8195
25.7978
24.7244
23.594
22.4135
39.9803
38.2934
36.0181
33.9898
32.3444
31.0047
29.8646
28.8364
27.855
26.8724
25.8539
24.7773
23.6356
22.4376
40.5309
38.7293
36.3108
34.1709
32.4537
31.0738
29.9154
28.8828
27.9043
26.9269
25.9111
24.8304
23.6767
22.4612
40.913
39.0345
36.5187
34.3024
32.5355
31.1277
29.9567
28.9211
27.945
26.9717
25.9575
24.8732
23.7094
22.4792
41.1085
39.1914
36.6266
34.3716
32.5794
31.1573
29.9798
28.9429
27.9682
26.9969
25.9837
24.8972
23.7275
22.489
34.9126
34.5686
33.8264
32.8783
31.8637
30.8494
29.8544
28.8727
27.8882
26.8823
25.8391
24.7486
23.6088
22.4266
34.8631
34.5224
33.7554
32.7988
31.7877
30.7802
29.7903
28.8111
27.8272
26.8221
25.782
24.6983
23.5697
22.4026
35.0018
34.6539
33.8257
32.8164
31.7736
30.7509
29.7557
28.7762
27.7948
26.7936
25.7581
24.6796
23.5565
22.3949
35.3016
34.9176
33.9999
32.9098
31.8128
30.7602
29.752
28.7701
27.7919
26.7962
25.7658
24.6898
23.5661
22.401
35.69
35.2558
34.2368
33.054
31.8923
30.8022
29.777
28.7915
27.8174
26.8283
25.8027
24.7265
23.5962
22.4194
36.1009
35.6151
34.4973
33.2227
31.9956
30.8667
29.8239
28.8352
27.8663
26.8853
25.8648
24.7857
23.6432
22.4485
36.4833
35.9517
34.7471
33.3912
32.1051
30.9413
29.8828
28.8924
27.9301
26.9586
25.9437
24.86
23.7006
22.4844
36.8001
36.2321
34.9588
33.5379
32.2045
31.0124
29.9419
28.9512
27.9962
27.0344
26.0254
24.9365
23.7578
22.5197
37.0252
36.4321
35.1116
33.6457
32.2794
31.068
29.9894
28.9993
28.0504
27.0965
26.0918
24.9979
23.803
22.5452
37.1419
36.5362
35.1915
33.7028
32.3198
31.0984
30.0159
29.0264
28.081
27.1314
26.1289
25.032
23.8277
22.5581
33.8911
33.6618
33.1495
32.4323
31.6008
30.7162
29.8078
28.8823
27.933
26.947
25.9114
24.8176
23.6651
22.4629
33.8046
33.6017
33.0807
32.3571
31.5249
30.6417
29.7336
28.8068
27.8553
26.8687
25.8361
24.7509
23.6132
22.4313
33.7937
33.6312
33.0988
32.3532
31.5036
30.6098
29.6968
28.7687
27.8187
26.8355
25.8078
24.7284
23.5972
22.4222
33.8904
33.7473
33.1897
32.4084
31.5295
30.6174
29.6962
28.7676
27.822
26.8454
25.8234
24.7461
23.6129
22.4326
34.0672
33.9255
33.3317
32.5064
31.5919
30.6578
29.7276
28.8002
27.8625
26.896
25.8809
24.8022
23.6579
22.4616
34.2838
34.1337
33.4997
32.6285
31.6775
30.7213
29.7833
28.86
27.9345
26.9829
25.9773
24.8941
23.7288
22.509
34.5029
34.3408
33.6686
32.7553
31.7711
30.7957
29.8527
28.9366
28.0273
27.0956
26.1039
25.0145
23.8162
22.5705
34.694
34.5203
33.8164
32.8686
31.8578
30.8676
29.9223
29.0151
28.1238
27.2145
26.2398
25.1448
23.9027
22.6318
34.8342
34.6518
33.9253
32.9534
31.9242
30.9243
29.9783
29.0792
28.2029
27.3115
26.3497
25.2483
23.9716
22.6713
34.9083
34.7211
33.983
32.9988
31.9602
30.9555
30.0097
29.1152
28.2473
27.3657
26.4103
25.3045
24.0084
22.6893
33.1575
32.9661
32.5797
32.0181
31.3309
30.5629
29.7421
28.8794
27.973
27.0135
25.9897
24.8939
23.7274
22.5017
33.0748
32.911
32.5202
31.9506
31.2579
30.4855
29.6597
28.7911
27.8791
26.9169
25.8958
24.8104
23.6625
22.4628
33.0081
32.8943
32.5105
31.9332
31.2306
30.4507
29.6204
28.7503
27.8396
26.881
25.8653
24.7863
23.6456
22.4538
33.0113
32.9323
32.5503
31.9609
31.2447
30.4556
29.6223
28.7551
27.8519
26.9029
25.8948
24.8175
23.6716
22.4716
33.0814
33.0197
32.6309
32.0245
31.2923
30.494
29.6604
28.8016
27.9134
26.9816
25.9853
24.905
23.7394
22.518
33.1953
33.1386
32.7369
32.1112
31.3629
30.5571
29.727
28.8828
28.0188
27.1153
26.1395
25.0532
23.8455
22.5973
33.3257
33.2672
32.8505
32.2061
31.4434
30.6328
29.81
28.9863
28.1557
27.2942
26.3549
25.2651
23.9736
22.7071
33.4477
33.3847
32.954
32.2938
31.52
30.7073
29.8939
29.0933
28.3003
27.4897
26.6032
25.5238
24.0875
22.8189
33.541
33.4735
33.0324
32.3609
31.5798
30.7665
29.9619
29.1806
28.4188
27.6483
26.799
25.7175
24.1892
22.8778
33.5915
33.5213
33.0746
32.3973
31.6125
30.7995
29.9999
29.2296
28.4849
27.7358
26.9045
25.8191
24.2421
22.9001
32.638
32.4564
32.1378
31.6758
31.0933
30.4193
29.6755
28.8723
28.0093
27.078
26.0675
24.9705
23.7894
22.5391
32.5682
32.4102
32.0879
31.616
31.0237
30.3401
29.5862
28.7725
27.9003
26.9639
25.9555
24.8706
23.7122
22.4937
32.484
32.3746
32.0651
31.5914
30.993
30.3033
29.5452
28.7299
27.8591
26.9272
25.9253
24.8472
23.6959
22.4858
32.4453
32.3733
32.0763
31.6019
30.999
30.3066
29.5501
28.7419
27.883
26.9651
25.974
24.8969
23.7353
22.5133
32.4618
32.411
32.12
31.6432
31.0367
30.3448
29.5963
28.8049
27.9706
27.0806
26.1096
25.0281
23.8306
22.5829
32.5213
32.4789
32.1876
31.7064
31.0973
30.4096
29.6757
28.9118
28.1186
27.2789
26.351
25.2658
23.9746
22.7078
32.6035
32.5616
32.2662
31.7799
31.1695
30.4891
29.7754
29.049
28.315
27.558
26.7235
25.6669
24.1162
22.8904
32.6873
32.6421
32.3414
31.8504
31.24
30.5685
29.8772
29.1923
28.5275
27.8803
27.2107
26.3216
24.2336
23.0654
32.7544
32.7054
32.4001
31.9057
31.2959
30.6324
29.96
29.3096
28.7008
28.1367
27.5685
26.7236
24.4482
23.1357
32.7916
32.7402
32.4323
31.9361
31.3269
30.6681
30.0064
29.3752
28.7969
28.2755
27.755
26.9256
24.5208
23.1554
32.2839
32.1027
31.8202
31.4196
30.9083
30.3033
29.62
28.8663
28.041
27.1351
26.137
25.0389
23.8443
22.571
32.2261
32.0641
31.7777
31.3656
30.8412
30.2226
29.5249
28.7567
27.9188
27.0055
26.0091
24.9246
23.7564
22.5202
32.139
32.0218
31.7495
31.3379
30.8088
30.1846
29.4828
28.7131
27.8772
26.9694
25.9805
24.9033
23.7415
22.5139
32.0825
32.0016
31.7456
31.3387
30.8103
30.1876
29.4912
28.7326
27.9133
27.0248
26.0504
24.9733
23.7943
22.5508
32.0729
32.0133
31.7685
31.3667
30.8423
30.2272
29.5458
28.8122
28.028
27.1799
26.237
25.1549
23.9147
22.6423
32.1042
32.0532
31.8139
31.4159
30.8975
30.2954
29.6386
28.9456
28.2217
27.4521
26.5875
25.516
24.0773
22.8091
32.1605
32.1099
31.8718
31.4764
30.9655
30.3803
29.7557
29.1182
28.4846
27.8564
27.1961
26.3064
24.1981
23.0339
32.2235
32.1694
31.9301
31.5366
31.0333
30.466
29.8761
29.3006
28.7767
28.356
28.16
28.4407
0.0
0.0
32.2763
32.2179
31.9769
31.5847
31.0878
30.5355
29.9744
29.4499
29.0134
28.739
28.7753
29.3443
0.0
0.0
32.3063
32.2452
32.0031
31.6115
31.1182
30.5744
30.0294
29.5332
29.1435
28.9429
29.0877
29.7943
0.0
0.0
32.0636
31.8806
31.6167
31.2513
30.7837
30.2235
29.5815
28.8629
28.0651
27.1783
26.1895
25.0905
23.8855
22.5942
32.0141
31.8472
31.5789
31.201
30.7182
30.1416
29.4821
28.746
27.9331
27.0371
26.0496
24.9654
23.7895
22.5396
31.9285
31.8031
31.5488
31.172
30.685
30.1031
29.4394
28.702
27.8916
27.002
26.023
24.9462
23.776
22.5341
31.8653
31.7745
31.5375
31.1679
30.6843
30.1065
29.4509
28.7277
27.9378
27.0717
26.1102
25.0326
23.8392
22.5765
31.8437
31.7733
31.5498
31.189
30.7136
30.1478
29.5124
28.8206
28.0744
27.259
26.3374
25.2532
23.9802
22.6792
31.8611
31.7988
31.5833
31.2306
30.7664
30.2196
29.6161
28.9754
28.3049
27.5899
26.7706
25.7007
24.1714
22.8613
31.9044
31.842
31.63
31.2842
30.8329
30.3095
29.7475
29.1766
28.621
28.0895
27.5381
26.6948
24.3997
23.0914
31.9568
31.8902
31.679
31.3388
30.9001
30.401
29.8831
29.3905
28.9756
28.7146
28.7571
29.3227
0.0
0.0
32.0023
31.9309
31.7194
31.3831
30.9545
30.4754
29.994
29.5658
29.2629
29.1943
29.5469
30.6454
0.0
0.0
32.0286
31.9541
31.7422
31.408
30.985
30.5172
30.0562
29.6636
29.4206
29.4487
29.9461
31.2343
0.0
0.0
31.958
31.7737
31.5178
31.1684
30.7215
30.1834
29.5622
28.8617
28.0785
27.2018
26.218
25.1185
23.9076
22.6064
31.9128
31.7428
31.4822
31.1198
30.6567
30.1008
29.4605
28.7409
27.9411
27.0543
26.0716
24.9875
23.8073
22.5498
31.8288
31.6985
31.4516
31.0904
30.6233
30.062
29.4175
28.6966
27.8997
27.0199
26.0461
24.9695
23.7945
22.5445
31.7635
31.6668
31.4374
31.0845
30.6219
30.0658
29.4307
28.7258
27.9515
27.0975
26.1429
25.0648
23.8632
22.5892
31.7373
31.6605
31.4453
31.1026
30.6502
30.1084
29.4962
28.8263
28.1002
27.3023
26.392
25.306
24.0149
22.6956
31.7492
31.6801
31.4738
31.1411
30.7023
30.1824
29.6061
28.9928
28.3509
27.6649
26.8682
25.797
24.2204
22.8802
31.7871
31.7174
31.5157
31.1918
30.7684
30.2754
29.7453
29.2098
28.6957
28.2143
27.7147
26.8892
24.4668
23.1055
31.8351
31.7608
31.5607
31.2441
30.8356
30.3703
29.8894
29.4408
29.0836
28.9032
29.0578
29.7622
0.0
0.0
31.8776
31.7981
31.5983
31.2868
30.8903
30.4475
30.0074
29.6304
29.3982
29.433
29.9332
31.2208
0.0
0.0
31.9023
31.8197
31.6197
31.311
30.921
30.4909
30.0735
29.7361
29.5709
29.7142
30.3769
31.876
0.0
0.0
31.9581
31.7738
31.5179
31.1685
30.7217
30.1836
29.5624
28.8619
28.0787
27.202
26.2183
25.1188
23.908
22.6068
31.9129
31.7429
31.4823
31.1199
30.6569
30.1009
29.4607
28.7411
27.9413
27.0546
26.0719
24.9878
23.8076
22.5501
31.8289
31.6986
31.4517
31.0906
30.6235
30.0621
29.4177
28.6968
27.8999
27.0201
26.0464
24.9698
23.7948
22.5449
31.7636
31.6669
31.4375
31.0846
30.622
30.0659
29.4309
28.726
27.9517
27.0977
26.1432
25.0651
23.8636
22.5896
31.7374
31.6607
31.4454
31.1027
30.6503
30.1086
29.4964
28.8264
28.1004
27.3026
26.3923
25.3064
24.0154
22.6961
31.7493
31.6802
31.4739
31.1412
30.7024
30.1825
29.6062
28.993
28.3511
27.6651
26.8686
25.7976
24.2212
22.8807
31.7873
31.7176
31.5158
31.1919
30.7685
30.2755
29.7455
29.2099
28.6959
28.2145
27.7151
26.8899
24.4685
23.1059
31.8353
31.761
31.5609
31.2442
30.8358
30.3704
29.8896
29.441
29.0837
28.9032
29.0577
29.7626
0.0
0.0
31.8777
31.7983
31.5984
31.287
30.8904
30.4477
30.0075
29.6305
29.3982
29.4326
29.9316
31.2151
0.0
0.0
31.9025
31.8198
31.6198
31.3111
30.9211
30.4911
30.0737
29.7363
29.5709
29.7139
30.3752
31.87
0.0
0.0
32.0639
31.8809
31.6171
31.2517
30.7841
30.224
29.5821
28.8635
28.0659
27.1791
26.1905
25.0916
23.8866
22.5953
32.0145
31.8475
31.5793
31.2014
30.7186
30.1421
29.4827
28.7466
27.9337
27.0379
26.0505
24.9663
23.7905
22.5405
31.9289
31.8034
31.5492
31.1723
30.6854
30.1035
29.4399
28.7025
27.8922
27.0028
26.0238
24.9471
23.777
22.535
31.8657
31.7748
31.5378
31.1683
30.6847
30.1069
29.4514
28.7282
27.9384
27.0724
26.1111
25.0336
23.8403
22.5776
31.8441
31.7737
31.5502
31.1893
30.714
30.1483
29.5129
28.8212
28.075
27.2598
26.3385
25.2545
23.9817
22.6805
31.8616
31.7992
31.5837
31.231
30.7669
30.22
29.6166
28.976
28.3055
27.5907
26.7718
25.7025
24.1737
22.8629
31.9049
31.8424
31.6304
31.2846
30.8333
30.31
29.7479
29.1772
28.6215
28.0902
27.5392
26.6972
24.4043
23.0931
31.9573
31.8906
31.6794
31.3392
30.9005
30.4015
29.8836
29.391
28.976
28.7148
28.7573
29.3251
0.0
0.0
32.0028
31.9313
31.7198
31.3836
30.9549
30.4759
29.9945
29.5662
29.2631
29.1936
29.5434
30.6334
0.0
0.0
32.0291
31.9546
31.7427
31.4085
30.9854
30.5177
30.0568
29.6641
29.4209
29.4482
29.9425
31.2212
0.0
0.0
32.2845
32.1032
31.8208
31.4202
30.9089
30.304
29.6209
28.8673
28.0421
27.1364
26.1384
25.0405
23.8461
22.5728
32.2267
32.0647
31.7783
31.3662
30.8419
30.2233
29.5258
28.7577
27.9198
27.0067
26.0104
24.926
23.7579
22.5218
32.1396
32.0224
31.7501
31.3385
30.8094
30.1853
29.4836
28.714
27.8782
26.9706
25.9818
24.9048
23.7431
22.5154
32.0832
32.0023
31.7462
31.3393
30.811
30.1883
29.492
28.7335
27.9144
27.026
26.0519
24.975
23.796
22.5525
32.0736
32.014
31.7692
31.3674
30.8429
30.2279
29.5466
28.8131
28.029
27.1812
26.2386
25.1569
23.9169
22.6444
32.1049
32.0539
31.8145
31.4165
30.8982
30.2961
29.6394
28.9465
28.2227
27.4534
26.5893
25.5186
24.0807
22.8118
32.1612
32.1106
31.8725
31.4771
30.9662
30.381
29.7565
29.1191
28.4855
27.8576
27.198
26.3099
24.2046
23.0377
32.2242
32.1701
31.9308
31.5373
31.034
30.4667
29.8769
29.3014
28.7775
28.3567
28.1608
28.4442
0.0
0.0
32.2771
32.2186
31.9776
31.5854
31.0885
30.5362
29.9752
29.4507
29.014
28.7389
28.7724
29.3328
0.0
0.0
32.3071
32.246
32.0038
31.6122
31.119
30.5752
30.0304
29.5343
29.1444
28.943
29.0847
29.7809
0.0
0.0
32.6388
32.4571
32.1386
31.6766
31.0942
30.4203
29.6767
28.8737
28.0108
27.0798
26.0694
24.9726
23.7917
22.5414
32.569
32.411
32.0886
31.6168
31.0246
30.3411
29.5873
28.7738
27.9017
26.9655
25.9573
24.8725
23.7142
22.4957
32.4849
32.3754
32.0659
31.5923
30.9938
30.3043
29.5463
28.7312
27.8605
26.9287
25.927
24.8491
23.6979
22.4878
32.4462
32.3741
32.0771
31.6028
30.9999
30.3075
29.5512
28.7432
27.8844
26.9667
25.9758
24.899
23.7375
22.5156
32.4628
32.4119
32.1208
31.644
31.0376
30.3458
29.5974
28.8061
27.972
27.0822
26.1116
25.0305
23.8333
22.5856
32.5223
32.4798
32.1885
31.7073
31.0982
30.4106
29.6768
28.9131
28.12
27.2806
26.3533
25.2689
23.9784
22.7114
32.6045
32.5625
32.2671
31.7808
31.1704
30.4901
29.7765
29.0502
28.3164
27.5597
26.726
25.6709
24.1224
22.8962
32.6882
32.643
32.3423
31.8513
31.241
30.5695
29.8783
29.1935
28.5288
27.8819
27.2129
26.3261
24.2452
23.0766
32.7554
32.7063
32.401
31.9066
31.2969
30.6335
29.9611
29.3108
28.7022
28.1379
27.5694
26.725
24.4577
23.1469
32.7927
32.7412
32.4332
31.937
31.3279
30.6692
30.0076
29.3766
28.7986
28.2771
27.7562
26.9266
24.5293
23.166
33.1584
32.967
32.5807
32.0191
31.332
30.5642
29.7436
28.881
27.9748
27.0156
25.992
24.8964
23.7299
22.5043
33.0758
32.9119
32.5211
31.9516
31.2589
30.4867
29.661
28.7926
27.8809
26.9188
25.8979
24.8126
23.6649
22.4652
33.0092
32.8953
32.5115
31.9342
31.2317
30.4519
29.6218
28.7518
27.8412
26.8828
25.8674
24.7885
23.6479
22.4561
33.0124
32.9334
32.5514
31.9619
31.2458
30.4568
29.6236
28.7566
27.8535
26.9047
25.897
24.8199
23.6741
22.4741
33.0825
33.0208
32.6319
32.0255
31.2934
30.4952
29.6618
28.8031
27.9151
26.9836
25.9876
24.9077
23.7423
22.5209
33.1964
33.1396
32.738
32.1123
31.364
30.5583
29.7283
28.8843
28.0205
27.1173
26.142
25.0564
23.8492
22.601
33.3269
33.2683
32.8516
32.2071
31.4446
30.634
29.8113
28.9879
28.1575
27.2963
26.3577
25.269
23.9786
22.7122
33.4489
33.3858
32.9551
32.2949
31.5212
30.7085
29.8953
29.0948
28.3021
27.4919
26.6061
25.528
24.0942
22.826
33.5422
33.4746
33.0335
32.3621
31.5809
30.7678
29.9633
29.1823
28.4207
27.6506
26.8017
25.7213
24.196
22.8854
33.5927
33.5225
33.0757
32.3985
31.6138
30.8008
30.0014
29.2314
28.4871
27.7384
26.9076
25.8233
24.2491
22.908
33.8921
33.6628
33.1505
32.4335
31.6021
30.7177
29.8094
28.8841
27.935
26.9493
25.9139
24.8203
23.6679
22.4657
33.8057
33.6027
33.0817
32.3582
31.5262
30.6431
29.7352
28.8085
27.8572
26.8708
25.8384
24.7534
23.6158
22.4338
33.7949
33.6323
33.0999
32.3544
31.5049
30.6112
29.6984
28.7704
27.8206
26.8376
25.8101
24.7308
23.5997
22.4248
33.8917
33.7485
33.1908
32.4096
31.5307
30.6187
29.6977
28.7693
27.8239
26.8474
25.8257
24.7487
23.6155
22.4353
34.0685
33.9267
33.3329
32.5076
31.5932
30.6591
29.7291
28.8018
27.8644
26.8982
25.8834
24.805
23.6609
22.4647
34.2851
34.1349
33.5009
32.6298
31.6787
30.7226
29.7849
28.8617
27.9364
26.9852
25.98
24.8972
23.7322
22.5126
34.5042
34.342
33.6698
32.7565
31.7724
30.7971
29.8542
28.9383
28.0293
27.098
26.1068
25.0181
23.8204
22.5749
34.6953
34.5216
33.8176
32.8699
31.8591
30.8691
29.9239
29.0169
28.1259
27.217
26.243
25.1488
23.9076
22.6371
34.8355
34.653
33.9265
32.9547
31.9255
30.9257
29.98
29.0811
28.2052
27.3143
26.353
25.2525
23.9769
22.6771
34.9097
34.7224
33.9843
33.0001
31.9616
30.957
30.0114
29.1173
28.2498
27.3688
26.414
25.3091
24.0141
22.6954
34.9137
34.5697
33.8275
32.8795
31.8651
30.851
29.8562
28.8746
27.8903
26.8846
25.8417
24.7514
23.6117
22.4295
34.8643
34.5235
33.7566
32.8
31.7891
30.7817
29.792
28.8129
27.8292
26.8244
25.7844
24.7008
23.5724
22.4053
35.0031
34.6552
33.827
32.8176
31.775
30.7524
29.7573
28.778
27.7967
26.7958
25.7605
24.6822
23.5592
22.3976
35.3029
34.9189
34.0012
32.9111
31.8142
30.7617
29.7536
28.7719
27.7939
26.7984
25.7682
24.6925
23.5689
22.4038
35.6914
35.2572
34.2382
33.0553
31.8937
30.8037
29.7786
28.7933
27.8194
26.8306
25.8053
24.7294
23.5992
22.4225
36.1023
35.6164
34.4986
33.2241
31.9969
30.8682
29.8255
28.8371
27.8684
26.8877
25.8676
24.7889
23.6466
22.4519
36.4847
35.953
34.7485
33.3925
32.1065
30.9428
29.8845
28.8943
27.9323
26.9611
25.9467
24.8635
23.7044
22.4883
36.8015
36.2334
34.9601
33.5392
32.2059
31.014
29.9436
28.9532
27.9985
27.0372
26.0287
24.9402
23.7621
22.5242
37.0265
36.4335
35.1129
33.647
32.2809
31.0695
29.9912
29.0014
28.0529
27.0994
26.0953
25.002
23.8077
22.55
37.1433
36.5375
35.1929
33.7042
32.3212
31.1001
30.0178
29.0287
28.0837
27.1346
26.1327
25.0364
23.8327
22.5633
36.3284
35.6732
34.533
33.2745
32.0591
30.926
29.8638
28.8448
27.8403
26.8253
25.7807
24.6955
23.5667
22.3999
36.4512
35.6941
34.4772
33.1969
31.986
30.8638
29.8105
28.797
27.7954
26.7823
25.7407
24.6606
23.5396
22.3832
36.9628
36.0293
34.6291
33.2374
31.9735
30.8314
29.7742
28.7635
27.767
26.7595
25.7232
24.6479
23.5311
22.3781
37.6978
36.5528
34.9203
33.3704
32.0187
30.8354
29.7634
28.7514
27.7599
26.759
25.7285
24.6562
23.5392
22.3829
38.5083
37.1558
35.2846
33.5625
32.1085
30.8729
29.7792
28.7629
27.7753
26.781
25.7554
24.6839
23.5623
22.3964
39.2921
37.756
35.6658
33.7796
32.2242
30.9342
29.8166
28.7944
27.8101
26.822
25.8006
24.7275
23.5974
22.4169
39.9817
38.2947
36.0194
33.9912
32.3458
31.0062
29.8663
28.8384
27.8573
26.8751
25.857
24.7807
23.6393
22.4414
40.5323
38.7306
36.3121
34.1723
32.4551
31.0754
29.9172
28.8849
27.9067
26.9298
25.9144
24.8342
23.6808
22.4654
40.9144
39.0358
36.52
34.3038
32.5369
31.1293
29.9585
28.9233
27.9476
26.9747
25.9611
24.8773
23.7138
22.4838
41.1099
39.1927
36.6279
34.3729
32.5808
31.159
29.9818
28.9452
27.971
27.0003
25.9875
24.9015
23.7323
22.4938
38.2498
36.8209
35.0802
33.4887
32.114
30.912
29.823
28.7957
27.7903
26.7775
25.7373
24.6583
23.5377
22.3806
38.9454
37.0094
35.0499
33.4051
32.0343
30.8487
29.7743
28.7571