# vtk DataFile Version 2.0
I need something to put here
ASCII

DATASET STRUCTURED_GRID
DIMENSIONS 41 11 21
POINTS 9471 float
0.000000 1.000000 0.000000
0.100000 1.000000 0.000000
0.200000 1.000000 0.000000
0.300000 1.000000 0.000000
0.400000 1.000000 0.000000
0.500000 1.000000 0.000000
0.600000 1.000000 0.000000
0.700000 1.000000 0.000000
0.800000 1.000000 0.000000
0.900000 1.000000 0.000000
1.000000 1.000000 0.000000
1.100000 1.000000 0.000000
1.200000 1.000000 0.000000
1.300000 1.000000 0.000000
1.400000 1.000000 0.000000
1.500000 1.000000 0.000000
1.600000 1.000000 0.000000
1.700000 1.000000 0.000000
1.800000 1.000000 0.000000
1.900000 1.000000 0.000000
2.000000 1.000000 0.000000
2.100000 1.000000 0.000000
2.200000 1.000000 0.000000
2.300000 1.000000 0.000000
2.400000 1.000000 0.000000
2.500000 1.000000 0.000000
2.600000 1.000000 0.000000
2.700000 1.000000 0.000000
2.800000 1.000000 0.000000
2.900000 1.000000 0.000000
3.000000 1.000000 0.000000
3.100000 1.000000 0.000000
3.200000 1.000000 0.000000
3.300000 1.000000 0.000000
3.400000 1.000000 0.000000
3.500000 1.000000 0.000000
3.600000 1.000000 0.000000
3.700000 1.000000 0.000000
3.800000 1.000000 0.000000
3.900000 1.000000 0.000000
4.000000 1.000000 0.000000
0.000000 1.100000 0.000000
0.100000 1.100000 0.000000
0.200000 1.100000 0.000000
0.300000 1.100000 0.000000
0.400000 1.100000 0.000000
0.500000 1.100000 0.000000
0.600000 1.100000 0.000000
0.700000 1.100000 0.000000
0.800000 1.100000 0.000000
0.900000 1.100000 0.000000
1.000000 1.100000 0.000000
1.100000 1.100000 0.000000
1.200000 1.100000 0.000000
1.300000 1.100000 0.000000
1.400000 1.100000 0.000000
1.500000 1.100000 0.000000
1.600000 1.100000 0.000000
1.700000 1.100000 0.000000
1.800000 1.100000 0.000000
1.900000 1.100000 0.000000
2.000000 1.100000 0.000000
2.100000 1.100000 0.000000
2.200000 1.100000 0.000000
2.300000 1.100000 0.000000
2.400000 1.100000 0.000000
2.500000 1.100000 0.000000
2.600000 1.100000 0.000000
2.700000 1.100000 0.000000
2.800000 1.100000 0.000000
2.900000 1.100000 0.000000
3.000000 1.100000 0.000000
3.100000 1.100000 0.000000
3.200000 1.100000 0.000000
3.300000 1.100000 0.000000
3.400000 1.100000 0.000000
3.500000 1.100000 0.000000
3.600000 1.100000 0.000000
3.700000 1.100000 0.000000
3.800000 1.100000 0.000000
3.900000 1.100000 0.000000
4.000000 1.100000 0.000000
0.000000 1.200000 0.000000
0.100000 1.200000 0.000000
0.200000 1.200000 0.000000
0.300000 1.200000 0.000000
0.400000 1.200000 0.000000
0.500000 1.200000 0.000000
0.600000 1.200000 0.000000
0.700000 1.200000 0.000000
0.800000 1.200000 0.000000
0.900000 1.200000 0.000000
1.000000 1.200000 0.000000
1.100000 1.200000 0.000000
1.200000 1.200000 0.000000
1.300000 1.200000 0.000000
1.400000 1.200000 0.000000
1.500000 1.200000 0.000000
1.600000 1.200000 0.000000
1.700000 1.200000 0.000000
1.800000 1.200000 0.000000
1.900000 1.200000 0.000000
2.000000 1.200000 0.000000
2.100000 1.200000 0.000000
2.200000 1.200000 0.000000
2.300000 1.200000 0.000000
2.400000 1.200000 0.000000
2.500000 1.200000 0.000000
2.600000 1.200000 0.000000
2.700000 1.200000 0.000000
2.800000 1.200000 0.000000
2.900000 1.200000 0.000000
3.000000 1.200000 0.000000
3.100000 1.200000 0.000000
3.200000 1.200000 0.000000
3.300000 1.200000 0.000000
3.400000 1.200000 0.000000
3.500000 1.200000 0.000000
3.600000 1.200000 0.000000
3.700000 1.200000 0.000000
3.800000 1.200000 0.000000
3.900000 1.200000 0.000000
4.000000 1.200000 0.000000
0.000000 1.300000 0.000000
0.100000 1.300000 0.000000
0.200000 1.300000 0.000000
0.300000 1.300000 0.000000
0.400000 1.300000 0.000000
0.500000 1.300000 0.000000
0.600000 1.300000 0.000000
0.700000 1.300000 0.000000
0.800000 1.300000 0.000000
0.900000 1.300000 0.000000
1.000000 1.300000 0.000000
1.100000 1.300000 0.000000
1.200000 1.300000 0.000000
1.300000 1.300000 0.000000
1.400000 1.300000 0.000000
1.500000 1.300000 0.000000
1.600000 1.300000 0.000000
1.700000 1.300000 0.000000
1.800000 1.300000 0.000000
1.900000 1.300000 0.000000
2.000000 1.300000 0.000000
2.100000 1.300000 0.000000
2.200000 1.300000 0.000000
2.300000 1.300000 0.000000
2.400000 1.300000 0.000000
2.500000 1.300000 0.000000
2.600000 1.300000 0.000000
2.700000 1.300000 0.000000
2.800000 1.300000 0.000000
2.900000 1.300000 0.000000
3.000000 1.300000 0.000000
3.100000 1.300000 0.000000
3.200000 1.300000 0.000000
3.300000 1.300000 0.000000
3.400000 1.300000 0.000000
3.500000 1.300000 0.000000
3.600000 1.300000 0.000000
3.700000 1.300000 0.000000
3.800000 1.300000 0.000000
3.900000 1.300000 0.000000
4.000000 1.300000 0.000000
0.000000 1.400000 0.000000
0.100000 1.400000 0.000000
0.200000 1.400000 0.000000
0.300000 1.400000 0.000000
0.400000 1.400000 0.000000
0.500000 1.400000 0.000000
0.600000 1.400000 0.000000
0.700000 1.400000 0.000000
0.800000 1.400000 0.000000
0.900000 1.400000 0.000000
1.000000 1.400000 0.000000
1.100000 1.400000 0.000000
1.200000 1.400000 0.000000
1.300000 1.400000 0.000000
1.400000 1.400000 0.000000
1.500000 1.400000 0.000000
1.600000 1.400000 0.000000
1.700000 1.400000 0.000000
1.800000 1.400000 0.000000
1.900000 1.400000 0.000000
2.000000 1.400000 0.000000
2.100000 1.400000 0.000000
2.200000 1.400000 0.000000
2.300000 1.400000 0.000000
2.400000 1.400000 0.000000
2.500000 1.400000 0.000000
2.600000 1.400000 0.000000
2.700000 1.400000 0.000000
2.800000 1.400000 0.000000
2.900000 1.400000 0.000000
3.000000 1.400000 0.000000
3.100000 1.400000 0.000000
3.200000 1.400000 0.000000
3.300000 1.400000 0.000000
3.400000 1.400000 0.000000
3.500000 1.400000 0.000000
3.600000 1.400000 0.000000
3.700000 1.400000 0.000000
3.800000 1.400000 0.000000
3.900000 1.400000 0.000000
4.000000 1.400000 0.000000
0.000000 1.500000 0.000000
0.100000 1.500000 0.000000
0.200000 1.500000 0.000000
0.300000 1.500000 0.000000
0.400000 1.500000 0.000000
0.500000 1.500000 0.000000
0.600000 1.500000 0.000000
0.700000 1.500000 0.000000
0.800000 1.500000 0.000000
0.900000 1.500000 0.000000
1.000000 1.500000 0.000000
1.100000 1.500000 0.000000
1.200000 1.500000 0.000000
1.300000 1.500000 0.000000
1.400000 1.500000 0.000000
1.500000 1.500000 0.000000
1.600000 1.500000 0.000000
1.700000 1.500000 0.000000
1.800000 1.500000 0.000000
1.900000 1.500000 0.000000
2.000000 1.500000 0.000000
2.100000 1.500000 0.000000
2.200000 1.500000 0.000000
2.300000 1.500000 0.000000
2.400000 1.500000 0.000000
2.500000 1.500000 0.000000
2.600000 1.500000 0.000000
2.700000 1.500000 0.000000
2.800000 1.500000 0.000000
2.900000 1.500000 0.000000
3.000000 1.500000 0.000000
3.100000 1.500000 0.000000
3.200000 1.500000 0.000000
3.300000 1.500000 0.000000
3.400000 1.500000 0.000000
3.500000 1.500000 0.000000
3.600000 1.500000 0.000000
3.700000 1.500000 0.000000
3.800000 1.500000 0.000000
3.900000 1.500000 0.000000
4.000000 1.500000 0.000000
0.000000 1.600000 0.000000
0.100000 1.600000 0.000000
0.200000 1.600000 0.000000
0.300000 1.600000 0.000000
0.400000 1.600000 0.000000
0.500000 1.600000 0.000000
0.600000 1.600000 0.000000
0.700000 1.600000 0.000000
0.800000 1.600000 0.000000
0.900000 1.600000 0.000000
1.000000 1.600000 0.000000
1.100000 1.600000 0.000000
1.200000 1.600000 0.000000
1.300000 1.600000 0.000000
1.400000 1.600000 0.000000
1.500000 1.600000 0.000000
1.600000 1.600000 0.000000
1.700000 1.600000 0.000000
1.800000 1.600000 0.000000
1.900000 1.600000 0.000000
2.000000 1.600000 0.000000
2.100000 1.600000 0.000000
2.200000 1.600000 0.000000
2.300000 1.600000 0.000000
2.400000 1.600000 0.000000
2.500000 1.600000 0.000000
2.600000 1.600000 0.000000
2.700000 1.600000 0.000000
2.800000 1.600000 0.000000
2.900000 1.600000 0.000000
3.000000 1.600000 0.000000
3.100000 1.600000 0.000000
3.200000 1.600000 0.000000
3.300000 1.600000 0.000000
3.400000 1.600000 0.000000
3.500000 1.600000 0.000000
3.600000 1.600000 0.000000
3.700000 1.600000 0.000000
3.800000 1.600000 0.000000
3.900000 1.600000 0.000000
4.000000 1.600000 0.000000
0.000000 1.700000 0.000000
0.100000 1.700000 0.000000
0.200000 1.700000 0.000000
0.300000 1.700000 0.000000
0.400000 1.700000 0.000000
0.500000 1.700000 0.000000
0.600000 1.700000 0.000000
0.700000 1.700000 0.000000
0.800000 1.700000 0.000000
0.900000 1.700000 0.000000
1.000000 1.700000 0.000000
1.100000 1.700000 0.000000
1.200000 1.700000 0.000000
1.300000 1.700000 0.000000
1.400000 1.700000 0.000000
1.500000 1.700000 0.000000
1.600000 1.700000 0.000000
1.700000 1.700000 0.000000
1.800000 1.700000 0.000000
1.900000 1.700000 0.000000
2.000000 1.700000 0.000000
2.100000 1.700000 0.000000
2.200000 1.700000 0.000000
2.300000 1.700000 0.000000
2.400000 1.700000 0.000000
2.500000 1.700000 0.000000
2.600000 1.700000 0.000000
2.700000 1.700000 0.000000
2.800000 1.700000 0.000000
2.900000 1.700000 0.000000
3.000000 1.700000 0.000000
3.100000 1.700000 0.000000
3.200000 1.700000 0.000000
3.300000 1.700000 0.000000
3.400000 1.700000 0.000000
3.500000 1.700000 0.000000
3.600000 1.700000 0.000000
3.700000 1.700000 0.000000
3.800000 1.700000 0.000000
3.900000 1.700000 0.000000
4.000000 1.700000 0.000000
0.000000 1.800000 0.000000
0.100000 1.800000 0.000000
0.200000 1.800000 0.000000
0.300000 1.800000 0.000000
0.400000 1.800000 0.000000
0.500000 1.800000 0.000000
0.600000 1.800000 0.000000
0.700000 1.800000 0.000000
0.800000 1.800000 0.000000
0.900000 1.800000 0.000000
1.000000 1.800000 0.000000
1.100000 1.800000 0.000000
1.200000 1.800000 0.000000
1.300000 1.800000 0.000000
1.400000 1.800000 0.000000
1.500000 1.800000 0.000000
1.600000 1.800000 0.000000
1.700000 1.800000 0.000000
1.800000 1.800000 0.000000
1.900000 1.800000 0.000000
2.000000 1.800000 0.000000
2.100000 1.800000 0.000000
2.200000 1.800000 0.000000
2.300000 1.800000 0.000000
2.400000 1.800000 0.000000
2.500000 1.800000 0.000000
2.600000 1.800000 0.000000
2.700000 1.800000 0.000000
2.800000 1.800000 0.000000
2.900000 1.800000 0.000000
3.000000 1.800000 0.000000
3.100000 1.800000 0.000000
3.200000 1.800000 0.000000
3.300000 1.800000 0.000000
3.400000 1.800000 0.000000
3.500000 1.800000 0.000000
3.600000 1.800000 0.000000
[...]
CELL_DATA 8000
SCALARS pressure float 1
LOOKUP_TABLE default
-53.8166
-45.5507
-41.6583
-39.4035
-37.8071
-36.5067
-35.3464
-34.2439
-33.1456
-32.0114
-30.812
-29.5322
-28.176
-26.7644
-25.3217
-23.8691
-22.4263
-21.0161
-19.6658
-18.4008
-17.231
-16.1498
-15.1409
-14.1861
-13.2692
-12.3777
-11.5025
-10.6377
-9.77919
-8.92453
-8.07217
-7.22114
-6.3709
-5.52108
-4.67151
-3.82206
-2.97267
-2.12332
-1.27397
-0.424623
-53.4417
-45.3457
-41.5326
-39.32
-37.7478
-36.461
-35.3078
-34.2081
-33.1104
-31.9766
-30.7789
-29.5034
-28.154
-26.7508
-25.317
-23.8733
-22.4395
-21.0377
-19.694
-18.4327
-17.2632
-16.1797
-15.1669
-14.2077
-13.2865
-12.3912
-11.5128
-10.6454
-9.78484
-8.92866
-8.07515
-7.22328
-6.37241
-5.52215
-4.67225
-3.82257
-2.97301
-2.12353
-1.27408
-0.424657
-52.6995
-44.9436
-41.2892
-39.1604
-37.6359
-36.376
-35.2364
-34.1422
-33.0458
-31.9126
-30.7182
-29.4505
-28.1137
-26.7257
-25.3083
-23.8814
-22.4641
-21.0777
-19.7463
-18.4916
-17.3228
-16.235
-15.2152
-14.2479
-13.3187
-12.4162
-11.5319
-10.6597
-9.79542
-8.93638
-8.08073
-7.22728
-6.37525
-5.52415
-4.67364
-3.82353
-2.97365
-2.12393
-1.2743
-0.42472
-51.6065
-44.3618
-40.9449
-38.9402
-37.4852
-36.2638
-35.1437
-34.0572
-32.9627
-31.8303
-30.64
-29.3824
-28.0617
-26.6935
-25.2974
-23.8923
-22.4965
-21.1301
-19.8146
-18.5687
-17.4008
-16.3076
-15.2787
-14.3008
-13.3613
-12.4495
-11.5573
-10.6787
-9.80951
-8.94667
-8.08817
-7.23261
-6.37904
-5.52682
-4.6755
-3.8248
-2.9745
-2.12447
-1.27459
-0.424803
-50.1913
-43.6294
-40.5269
-38.6831
-37.3157
-36.1417
-35.0449
-33.9676
-32.8751
-31.7435
-30.5574
-29.3103
-28.0065
-26.6595
-25.2864
-23.9048
-22.5324
-21.1875
-19.8889
-18.6525
-17.4858
-16.3871
-15.3486
-14.3593
-13.4084
-12.4864
-11.5856
-10.7
-9.82527
-8.9582
-8.09651
-7.23859
-6.38329
-5.5298
-4.67758
-3.82622
-2.97545
-2.12506
-1.27491
-0.424898
-48.5007
-42.7926
-40.0755
-38.422
-37.1536
-36.0305
-34.9573
-33.8886
-32.7974
-31.6659
-30.483
-29.2451
-27.9565
-26.6288
-25.2771
-23.9178
-22.5672
-21.2424
-19.9596
-18.7321
-17.5667
-16.4632
-15.4157
-14.4158
-13.4543
-12.5225
-11.6133
-10.7209
-9.84072
-8.9695
-8.10468
-7.24444
-6.38744
-5.53272
-4.67961
-3.82761
-2.97637
-2.12564
-1.27522
-0.424988
-46.6149
-41.9235
-39.648
-38.199
-37.0291
-35.9521
-34.8979
-33.834
-32.7417
-31.6084
-30.4268
-29.195
-27.9179
-26.6054
-25.2711
-23.9299
-22.5973
-21.2888
-20.0188
-18.7986
-17.6346
-16.5273
-15.4727
-14.464
-13.4935
-12.5534
-11.6371
-10.7388
-9.85401
-8.97922
-8.1117
-7.24946
-6.39099
-5.53521
-4.68133
-3.82879
-2.97715
-2.12613
-1.27548
-0.425063
-44.6772
-41.135
-39.322
-38.0641
-36.9733
-35.9263
-34.8797
-33.8137
-32.7159
-31.5777
-30.3942
-29.1649
-27.8943
-26.5916
-25.2689
-23.9402
-22.6201
-21.323
-20.0619
-18.8469
-17.6838
-16.5739
-15.5142
-14.4993
-13.5222
-12.5761
-11.6546
-10.752
-9.86377
-8.98633
-8.11682
-7.2531
-6.39356
-5.537
-4.68257
-3.82962
-2.9777
-2.12647
-1.27567
-0.425117
-42.9493
-40.5949
-39.1916
-38.0655
-37.0094
-35.9636
-34.9076
-33.8298
-32.7211
-31.5747
-30.3862
-29.1554
-27.8864
-26.5876
-25.2704
-23.948
-22.6345
-21.3434
-20.087
-18.8747
-17.7121
-16.6007
-15.5381
-14.5195
-13.5387
-12.5891
-11.6645
-10.7594
-9.86928
-8.99033
-8.11968
-7.25512
-6.39497
-5.53797
-4.68323
-3.83007
-2.97799
-2.12665
-1.27576
-0.425156
-41.8947
-40.5145
-39.3293
-38.2154
-37.1282
-36.0502
-34.9686
-33.8718
-32.7494
-31.5932
-30.398
-29.1629
-27.8916
-26.5917
-25.2744
-23.9524
-22.6397
-21.3495
-20.0938
-18.8819
-17.7193
-16.6073
-15.5438
-14.5243
-13.5425
-12.592
-11.6666
-10.761
-9.87034
-8.99105
-8.12016
-7.25543
-6.39516
-5.53809
-4.6833
-3.83011
-2.97801
-2.12665
-1.27577
-0.425176
-46.7491
-43.8245
-41.2608
-39.314
-37.7822
-36.49
-35.325
-34.2153
-33.11
-31.9708
-30.7693
-29.4912
-28.1415
-26.742
-25.3156
-23.8808
-22.4541
-21.0554
-19.7105
-18.4464
-17.2744
-16.1888
-15.1742
-14.2135
-13.2909
-12.3945
-11.5152
-10.6472
-9.7862
-8.92967
-8.07591
-7.22386
-6.37286
-5.52249
-4.67251
-3.82277
-2.97316
-2.12364
-1.27416
-0.42471
-46.5136
-43.6537
-41.1432
-39.2325
-37.7237
-36.4452
-35.2875
-34.1809
-33.0767
-31.9382
-30.7387
-29.4649
-28.1217
-26.7298
-25.3113
-23.8844
-22.4657
-21.0746
-19.7362
-18.4758
-17.3044
-16.2168
-15.1988
-14.2339
-13.3074
-12.4073
-11.5251
-10.6546
-9.79166
-8.93367
-8.07881
-7.22594
-6.37434
-5.52354
-4.67324
-3.82327
-2.9735
-2.12385
-1.27427
-0.424742
-46.0495
-43.3195
-40.9156
-39.0768
-37.6133
-36.3616
-35.2182
-34.1178
-33.0155
-31.8782
-30.6823
-29.4164
-28.0851
-26.7073
-25.3034
-23.8912
-22.4873
-21.1105
-19.7839
-18.5304
-17.3601
-16.2688
-15.2444
-14.272
-13.338
-12.4313
-11.5434
-10.6683
-9.80187
-8.94115
-8.08423
-7.22983
-6.37711
-5.52549
-4.67461
-3.82421
-2.97412
-2.12424
-1.27449
-0.424799
-45.3723
-42.839
-40.5946
-38.862
-37.4646
-36.2513
-35.128
-34.0363
-32.9367
-31.8009
-30.6095
-29.3535
-28.0378
-26.6782
-25.2935
-23.9006
-22.516
-21.1579
-19.8467
-18.6021
-17.4331
-16.3372
-15.3044
-14.3222
-13.3785
-12.4631
-11.5678
-10.6867
-9.81547
-8.95111
-8.09145
-7.23502
-6.3808
-5.5281
-4.67642
-3.82545
-2.97496
-2.12477
-1.27477
-0.424877
-44.5084
-42.2407
-40.2072
-38.6119
-37.2974
-36.1312
-35.032
-33.9503
-32.8538
-31.7195
-30.5326
-29.287
-27.9875
-26.6475
-25.2834
-23.9116
-22.5481
-21.2099
-19.9152
-18.6802
-17.5128
-16.412
-15.3704
-14.3777
-13.4234
-12.4984
-11.5949
-10.7071
-9.83066
-8.96224
-8.09952
-7.24082
-6.38493
-5.531
-4.67845
-3.82684
-2.97588
-2.12535
-1.27508
-0.424963
-43.5014
-41.5695
-39.7933
-38.3589
-37.1377
-36.0219
-34.9471
-33.875
-32.7807
-31.6471
-30.4637
-29.2271
-27.942
-26.6197
-25.275
-23.923
-22.5793
-21.2598
-19.9803
-18.7541
-17.5884
-16.4834
-15.4337
-14.4311
-13.4669
-12.5326
-11.6213
-10.7271
-9.84548
-8.97311
-8.1074
-7.24647
-6.38894
-5.53383
-4.68042
-3.82819
-2.97678
-2.12591
-1.27538
-0.425045
-42.4266
-40.8956
-39.4092
-38.1451
-37.0157
-35.9454
-34.8903
-33.824
-32.7293
-31.5945
-30.4125
-29.1819
-27.9074
-26.5989
-25.2697
-23.9339
-22.6063
-21.3018
-20.0344
-18.8154
-17.6513
-16.543
-15.4868
-14.4762
-13.5037
-12.5617
-11.6437
-10.744
-9.85809
-8.98234
-8.11408
-7.25125
-6.39233
-5.53621
-4.68207
-3.82932
-2.97752
-2.12637
-1.27563
-0.425111
-41.4207
-40.327
-39.1311
-38.0206
-36.9632
-35.9223
-34.8754
-33.8077
-32.7082
-31.5689
-30.3852
-29.1565
-27.8877
-26.5876
-25.2682
-23.943
-22.6263
-21.3318
-20.0725
-18.8584
-17.6954
-16.5849
-15.5243
-14.5081
-13.5297
-12.5823
-11.6596
-10.756
-9.86696
-8.98882
-8.11874
-7.25457
-6.39467
-5.53784
-4.68319
-3.83007
-2.97802
-2.12668
-1.27579
-0.425157
-40.72
-40.0186
-39.0538
-38.0384
-37.0082
-35.9671
-34.9106
-33.8312
-32.7211
-31.5735
-30.3844
-29.1534
-27.8848
-26.5868
-25.2708
-23.9497
-22.6374
-21.3473
-20.0915
-18.8795
-17.717
-16.6054
-15.5425
-14.5235
-13.5422
-12.5921
-11.6671
-10.7616
-9.871
-8.99171
-8.12078
-7.25598
-6.39564
-5.53849
-4.68362
-3.83035
-2.9782
-2.12678
-1.27585
-0.42518
-40.6161
-40.1577
-39.2775
-38.2413
-37.1653
-36.0831
-34.9955
-33.8937
-32.7675
-31.6083
-30.4106
-29.1731
-27.8993
-26.597
-25.2772
-23.953
-22.6381
-21.346
-20.0889
-18.8761
-17.7132
-16.6015
-15.5387
-14.5199
-13.539
-12.5893
-11.6647
-10.7596
-9.86936
-8.99039
-8.11972
-7.25515
-6.39499
-5.53799
-4.68324
-3.83007
-2.97799
-2.12665
-1.27576
-0.425163
-43.0653
-41.8995
-40.3561
-38.8869
-37.5741
-36.3894
-35.2848
-34.2154
-33.1409
-32.0247
-30.8343
-29.5495
-28.178
-26.7603
-25.3238
-23.8821
-22.4438
-21.023
-19.6498
-18.371
-17.2014
-16.1281
-15.1286
-14.1815
-13.2696
-12.3807
-11.5066
-10.642
-9.78311
-8.92792
-8.07496
-7.22339
-6.37266
-5.52244
-4.67253
-3.82282
-2.97322
-2.1237
-1.27421
-0.424742
-42.9008
-41.7658
-40.2557
-38.8132
-37.5189
-36.3456
-35.2468
-34.1792
-33.1044
-31.9878
-30.7989
-29.5192
-28.1559
-26.7471
-25.319
-23.8853
-22.4555
-21.0439
-19.6791
-18.4053
-17.2361
-16.1599
-15.156
-14.2038
-13.2872
-12.3942
-11.5169
-10.6495
-9.78868
-8.93196
-8.07788
-7.22547
-6.37413
-5.52348
-4.67326
-3.82332
-2.97355
-2.1239
-1.27432
-0.424772
-42.5781
-41.5055
-40.0621
-38.6728
-37.4152
-36.2641
-35.1766
-34.1125
-33.0371
-31.9194
-30.7331
-29.4627
-28.1149
-26.7226
-25.3101
-23.8915
-22.4776
-21.083
-19.7343
-18.4694
-17.3008
-16.2192
-15.2067
-14.2452
-13.3198
-12.4194
-11.5359
-10.6637
-9.79908
-8.93953
-8.08333
-7.22937
-6.3769
-5.52542
-4.67461
-3.82425
-2.97417
-2.12429
-1.27453
-0.424826
-42.1112
-41.1345
-39.7915
-38.4806
-37.2763
-36.1572
-35.0856
-34.0267
-32.9505
-31.8312
-30.6477
-29.3889
-28.0615
-26.6909
-25.2988
-23.9001
-22.5069
-21.1348
-19.8073
-18.5539
-17.3858
-16.2969
-15.2732
-14.2996
-13.3629
-12.4527
-11.561
-10.6825
-9.81289
-8.94958
-8.09059
-7.23456
-6.38058
-5.52801
-4.67642
-3.82548
-2.975
-2.12481
-1.2748
-0.424898
-41.5243
-40.6799
-39.4697
-38.2597
-37.122
-36.0418
-34.9894
-33.9367
-32.86
-31.739
-30.5584
-29.3116
-28.0049
-26.6572
-25.2873
-23.9103
-22.5399
-21.1916
-19.886
-18.6446
-17.4773
-16.381
-15.3457
-14.3593
-13.4104
-12.4895
-11.589
-10.7033
-9.82826
-8.96078
-8.09866
-7.24033
-6.38468
-5.53089
-4.67842
-3.82685
-2.97591
-2.12538
-1.27511
-0.42498
-40.8567
-40.1835
-39.1347
-38.0416
-36.9776
-35.9388
-34.9056
-33.8588
-32.781
-31.6582
-30.48
-29.2433
-27.9541
-26.6269
-25.2776
-23.9213
-22.5722
-21.2456
-19.9589
-18.7284
-17.5623
-16.4599
-15.4144
-14.4163
-13.456
-12.5249
-11.616
-10.7235
-9.84315
-8.97163
-8.10648
-7.24592
-6.38863
-5.53367
-4.68034
-3.82817
-2.97678
-2.12592
-1.2754
-0.425056
-40.1768
-39.7104
-38.8397
-37.8668
-36.8731
-35.8701
-34.8516
-33.8074
-32.7268
-31.6008
-30.4232
-29.1931
-27.9163
-26.6044
-25.2714
-23.9318
-22.5997
-21.2901
-20.0178
-18.7958
-17.6311
-16.5243
-15.4709
-14.4634
-13.4939
-12.5545
-11.6385
-10.7404
-9.85561
-8.98069
-8.113
-7.25057
-6.39191
-5.53596
-4.68193
-3.82924
-2.97749
-2.12636
-1.27563
-0.425114
-39.6085
-39.3584
-38.6558
-37.7835
-36.84
-35.857
-34.8422
-33.7937
-32.7065
-31.5747
-30.3946
-29.1666
-27.8959
-26.5927
-25.2696
-23.9405
-22.6194
-21.3205
-20.0573
-18.8407
-17.6771
-16.5676
-15.509
-14.4954
-13.5196
-12.5746
-11.6539
-10.7518
-9.86399
-8.98675
-8.11733
-7.25363
-6.39405
-5.53744
-4.68294
-3.82992
-2.97793
-2.12663
-1.27577
-0.42515
-39.3549
-39.26
-38.6695
-37.8439
-36.9081
-35.9161
-34.8873
-33.8247
-32.7252
-31.584
-30.3977
-29.1666
-27.8956
-26.5936
-25.2728
-23.9465
-22.6289
-21.3338
-20.074
-18.8595
-17.6963
-16.5856
-15.5248
-14.5084
-13.53
-12.5825
-11.6598
-10.7561
-9.86704
-8.98888
-8.11879
-7.2546
-6.39469
-5.53785
-4.6832
-3.83008
-2.97802
-2.12668
-1.27579
-0.42516
-39.5894
-39.5526
-38.9722
-38.0945
-37.0971
-36.0554
-34.9903
-33.9022
-32.7845
-31.6301
-30.4338
-29.1946
-27.9165
-26.608
-25.281
-23.9492
-22.6268
-21.3279
-20.0655
-18.8495
-17.6858
-16.5754
-15.5153
-14.5001
-13.5228
-12.5766
-11.6549
-10.7522
-9.86394
-8.98646
-8.11691
-7.25316
-6.3936
-5.53703
-4.68259
-3.82964
-2.97771
-2.12647
-1.27567
-0.425127
-41.1484
-40.4887
-39.4798
-38.3783
-37.2935
-36.2525
-35.2473
-34.2563
-33.2499
-32.1901
-31.0298
-29.7261
-28.2842
-26.8121
-25.3434
-23.8776
-22.4052
-20.9237
-19.4668
-18.1533
-16.9975
-15.9616
-15.0033
-14.0917
-13.2073
-12.3384
-11.4783
-10.6231
-9.77072
-8.91979
-8.06966
-7.21994
-6.37043
-5.521
-4.67162
-3.82224
-2.97287
-2.12349
-1.27411
-0.424732
-41.0195
-40.3812
-39.3952
-38.3131
-37.2421
-36.2091
-35.2067
-34.2144
-33.2044
-32.1411
-30.9811
-29.6847
-28.2561
-26.7961
-25.3373
-23.8805
-22.4181
-20.9493
-19.5067
-18.2011
-17.0451
-16.0036
-15.0378
-14.1188
-13.2279
-12.3538
-11.4896
-10.6314
-9.77666
-8.92405
-8.07269
-7.22209
-6.37194
-5.52206
-4.67235
-3.82274
-2.9732
-2.1237
-1.27422
-0.424761
-40.7675
-40.1728
-39.233
-38.1896
-37.146
-36.1287
-35.1319
-34.1372
-33.12
-32.0492
-30.8883
-29.6047
-28.2026
-26.7663
-25.3261
-23.8858
-22.4422
-20.998
-19.584
-18.2926
-17.1348
-16.0821
-15.1019
-14.169
-13.2661
-12.3823
-11.5107
-10.6467
-9.78775
-8.93201
-8.07836
-7.22611
-6.37476
-5.52404
-4.67372
-3.82368
-2.97382
-2.12409
-1.27443
-0.424814
-40.4055
-39.8786
-39.0086
-38.0224
-37.0185
-36.0239
-35.0354
-34.0381
-33.0112
-31.9296
-30.7655
-29.4972
-28.1325
-26.7279
-25.3119
-23.893
-22.4739
-21.0628
-19.689
-18.4148
-17.2529
-16.1848
-15.1857
-14.2347
-13.3163
-12.42
-11.5385
-10.667
-9.80244
-8.94256
-8.08589
-7.23144
-6.37852
-5.52666
-4.67553
-3.82491
-2.97464
-2.1246
-1.2747
-0.424884
-39.9554
-39.5238
-38.7465
-37.8337
-36.8794
-35.9125
-34.9345
-33.935
-32.8985
-31.8065
-30.6401
-29.3876
-28.058
-26.6864
-25.2971
-23.9025
-22.5107
-21.1343
-19.7986
-18.5422
-17.3772
-16.2942
-15.276
-14.3061
-13.3713
-12.4613
-11.5691
-10.6895
-9.81872
-8.95425
-8.09423
-7.23735
-6.38267
-5.52956
-4.67754
-3.82628
-2.97555
-2.12517
-1.275
-0.424962
-39.4529
-39.1469
-38.4823
-37.6538
-36.7535
-35.8157
-34.8482
-33.8467
-32.8017
-31.7011
-30.5336
-29.2943
-27.9919
-26.6486
-25.2844
-23.9134
-22.5476
-21.2015
-19.8958
-18.6548
-17.4889
-16.3942
-15.3598
-14.3733
-13.4233
-12.5008
-11.5985
-10.711
-9.83437
-8.96551
-8.10225
-7.24302
-6.38666
-5.53234
-4.67945
-3.82758
-2.97641
-2.1257
-1.27529
-0.425033
-38.9596
-38.8072
-38.2653
-37.5207
-36.6698
-35.7557
-34.7946
-33.7893
-32.7359
-31.6275
-30.4585
-29.2279
-27.9433
-26.6204
-25.2758
-23.9242
-22.5791
-21.2555
-19.9707
-18.7413
-17.5759
-16.4734
-15.4272
-14.4278
-13.466
-12.5333
-11.6227
-10.7288
-9.84729
-8.97477
-8.10884
-7.24766
-6.38991
-5.53459
-4.681
-3.82863
-2.97709
-2.12612
-1.27551
-0.425086
-38.5868
-38.5915
-38.1594
-37.4791
-36.6584
-35.7531
-34.7889
-33.7747
-32.7107
-31.5937
-30.4208
-29.1931
-27.9173
-26.6057
-25.2727
-23.9329
-22.6007
-21.2909
-20.0185
-18.7963
-17.6316
-16.5247
-15.4712
-14.4637
-13.4941
-12.5547
-11.6387
-10.7405
-9.85568
-8.98074
-8.11304
-7.2506
-6.39193
-5.53597
-4.68194
-3.82925
-2.97749
-2.12636
-1.27563
-0.425115
-38.5101
-38.6113
-38.2395
-37.5756
-36.7466
-35.824
-34.841
-33.8096
-32.7312
-31.6031
-30.4231
-29.1923
-27.9165
-26.6065
-25.2757
-23.9386
-22.61
-21.3047
-20.0366
-18.8171
-17.6526
-16.5441
-15.4876
-14.4768
-13.5041
-12.5621
-11.644
-10.7442
-9.85824
-8.98246
-8.11417
-7.25131
-6.39238
-5.53624
-4.68209
-3.82933
-2.97753
-2.12638
-1.27563
-0.425115
-38.8426
-38.9653
-38.5776
-37.8479
-36.9504
-35.9743
-34.9531
-33.8951
-32.798
-31.6564
-30.4658
-29.226
-27.942
-26.6238
-25.285
-23.9404
-22.6052
-21.2947
-20.0232
-18.802
-17.6371
-16.5292
-15.4741
-14.4651
-13.4943
-12.554
-11.6375
-10.7391
-9.85427
-8.9794
-8.11184
-7.24955
-6.39105
-5.53526
-4.68136
-3.8288
-2.97716
-2.12613
-1.27549
-0.425072
-40.0677
-39.5382
-38.7845
-37.9209
-37.0223
-36.1242
-35.2369
-34.355
-33.4587
-32.5061
-31.4197
-30.0846
-28.4504
-26.8772
-25.3668
-23.8774
-22.3637
-20.7753
-19.1032
-17.7322
-16.6277
-15.676
-14.7969
-13.9477
-13.1089
-12.2719
-11.4337
-10.5933
-9.75083
-8.90656
-8.06087
-7.21411
-6.36657
-5.51845
-4.66994
-3.82116
-2.97218
-2.12308
-1.27391
-0.424691
-39.9577
-39.4474
-38.7116
-37.8626
-36.9737
-36.0798
-35.1912
-34.3031
-33.397
-32.4349
-31.3456
-30.0229
-28.414
-26.8585
-25.3595
-23.8792
-22.3766
-20.8066
-19.1622
-17.8056
-16.6988
-15.7358
-14.8435
-13.9826
-13.1343
-12.2902
-11.4467
-10.6026
-9.75738
-8.91117
-8.0641
-7.21637
-6.36814
-5.51954
-4.67069
-3.82167
-2.97252
-2.12329
-1.27402
-0.42472
-39.7431
-39.2719
-38.5726
-37.7528
-36.8831
-35.9977
-35.1069
-34.2068
-33.2813
-32.2975
-31.1972
-29.8943
-28.3423
-26.8234
-25.3458
-23.8819
-22.4004
-20.868
-19.2855
-17.9532
-16.8362
-15.8488
-14.9305
-14.0472
-13.1814
-12.3241
-11.471
-10.6198
-9.76958
-8.91977
-8.07014
-7.2206
-6.37108
-5.52158
-4.6721
-3.82262
-2.97315
-2.12368
-1.27422
-0.424771
-39.4362
-39.0261
-38.3821
-37.6057
-36.7644
-35.8916
-34.9987
-34.0831
-33.1308
-32.1147
-30.9909
-29.7053
-28.2484
-26.78
-25.3287
-23.8841
-22.4283
-20.9475
-19.4678
-18.1595
-17.0205
-15.9972
-15.044
-14.1316
-13.2431
-12.3687
-11.5029
-10.6426
-9.78571
-8.93115
-8.07814
-7.22619
-6.37498
-5.52428
-4.67395
-3.82387
-2.97397
-2.1242
-1.2745
-0.424841
-39.0572
-38.7334
-38.1636
-37.4431
-36.6372
-35.7806
-34.8867
-33.9555
-32.977
-31.9311
-30.7894
-29.5249
-28.1453
-26.7301
-25.3106
-23.8906
-22.4667
-21.0412
-19.6453
-18.3639
-17.2084
-16.1521
-15.1645
-14.2223
-13.31
-12.4174
-11.538
-10.6676
-9.80351
-8.94372
-8.08698
-7.23237
-6.37928
-5.52726
-4.67599
-3.82525
-2.97488
-2.12476
-1.2748
-0.424917
-38.6389
-38.4296
-37.9503
-37.2937
-36.5264
-35.6866
-34.7922
-33.8475
-32.8473
-31.7794
-30.6279
-29.3822
-28.0535
-26.6822
-25.2941
-23.901
-22.5093
-21.1303
-19.7905
-18.5326
-17.3693
-16.2893
-15.274
-14.3063
-13.3727
-12.4634
-11.5713
-10.6916
-9.82052
-8.95574
-8.09542
-7.23827
-6.38338
-5.53008
-4.67792
-3.82656
-2.97574
-2.12529
-1.27507
-0.424984
-38.2372
-38.1687
-37.7876
-37.1934
-36.4597
-35.632
-34.7346
-33.7772
-32.7595
-31.6756
-30.5183
-29.2851
-27.9863
-26.6452
-25.2823
-23.9121
-22.5468
-21.201
-19.8955
-18.6548
-17.489
-16.3943
-15.3599
-14.3734
-13.4234
-12.5009
-11.5986
-10.7111
-9.83443
-8.96555
-8.10228
-7.24304
-6.38667
-5.53235
-4.67946
-3.82759
-2.97641
-2.1257
-1.27528
-0.425032
-37.9536
-38.0288
-37.7332
-37.183
-36.4653
-35.6368
-34.7291
-33.7566
-32.7228
-31.6257
-30.4626
-29.2343
-27.9497
-26.6249
-25.277
-23.9213
-22.5725
-21.2461
-19.9594
-18.7289
-17.5628
-16.4604
-15.4148
-14.4166
-13.4563
-12.5251
-11.6162
-10.7237
-9.84327
-8.97172
-8.10655
-7.24597
-6.38867
-5.53369
-4.68036
-3.82818
-2.97678
-2.12592
-1.2754
-0.425056
-37.946
-38.1069
-37.8523
-37.3033
-36.5674
-35.7153
-34.7847
-33.7918
-32.741
-31.6309
-30.4596
-29.2288
-27.946
-26.6243
-25.2793
-23.9268
-22.5825
-21.2624
-19.9824
-18.7558
-17.5898
-16.4845
-15.4346
-14.4319
-13.4675
-12.5331
-11.6216
-10.7273
-9.84569
-8.97327
-8.10752
-7.24655
-6.389
-5.53387
-4.68044
-3.82821
-2.97679
-2.12591
-1.27539
-0.425049
-38.3011
-38.4805
-38.2031
-37.5838
-36.7772
-35.8707
-34.9018
-33.8825
-32.8133
-31.6898
-30.5079
-29.2677
-27.9757
-26.6444
-25.2894
-23.9273
-22.5746
-21.248
-19.9639
-18.7354
-17.5693
-16.4652
-15.4173
-14.417
-13.4552
-12.5232
-11.6138
-10.7213
-9.84103
-8.96973
-8.10485
-7.24456
-6.38752
-5.53278
-4.67965
-3.82763
-2.97639
-2.12565
-1.27523
-0.424997
-39.4066
-38.9062
-38.2756
-37.5596
-36.8012
-36.0311
-35.2682
-34.5217
-33.7875
-33.0309
-32.1368
-30.8084
-28.5931
-26.8983
-25.3762
-23.8987
-22.3821
-20.6783
-18.3839
-16.9761
-16.0372
-15.2597
-14.5145
-13.7589
-12.9832
-12.1883
-11.3781
-10.5563
-9.72616
-8.8901
-8.04988
-7.20678
-6.36168
-5.5152
-4.66779
-3.81975
-2.97128
-2.12254
-1.27363
-0.424628
-39.3071
-38.8254
-38.2104
-37.5058
-36.7537
-35.9839
-35.2147
-34.455
-33.7016
-32.9247
-32.022
-30.7173
-28.554
-26.8806
-25.3687
-23.8981
-22.3908
-20.7083
-18.4705
-17.091
-16.1452
-15.3459
-14.5782
-13.8043
-13.0149
-12.2104
-11.3934
-10.5669
-9.73347
-8.89515
-8.05337
-7.20919
-6.36333
-5.51634
-4.66856
-3.82027
-2.97162
-2.12275
-1.27374
-0.424656
-39.1133
-38.67
-38.0867
-37.4052
-36.6657
-35.8969
-35.1159
-34.3303
-33.5367
-32.7099
-31.7696
-30.4963
-28.4714
-26.8474
-25.3548
-23.8954
-22.4046
-20.7705
-18.6816
-17.3438
-16.3637
-15.5122
-14.698
-13.8886
-13.0738
-12.2512
-11.4217
-10.5865
-9.74707
-8.90457
-8.05988
-7.21368
-6.36643
-5.51846
-4.67001
-3.82124
-2.97226
-2.12314
-1.27395
-0.424708
-38.8367
-38.4535
-37.9186
-37.2717
-36.5514
-35.7852
-34.9891
-34.169
-33.3182
-32.4098
-31.3756
-30.0781
-28.3861
-26.8216
-25.34
-23.8823
-22.3977
-20.8179
-19.0826
-17.7392
-16.6702
-15.734
-14.8549
-13.9986
-13.1505
-12.3047
-11.4589
-10.6123
-9.765
-8.917
-8.06849
-7.21962
-6.37052
-5.52126
-4.67192
-3.82252
-2.9731
-2.12366
-1.27422
-0.424777
-38.4966
-38.198
-37.7285
-37.1267
-36.431
-35.6696
-34.8589
-34.0043
-33.0992
-32.1205
-31.0224
-29.7407
-28.2578
-26.7765
-25.3231
-23.8793
-22.4204
-20.9238
-19.4115
-18.0968
-16.9684
-15.9597
-15.0189
-14.1156
-13.2332
-12.3628
-11.4995
-10.6407
-9.78474
-8.9307
-8.07797
-7.22617
-6.37502
-5.52435
-4.67402
-3.82393
-2.97402
-2.12423
-1.27452
-0.424852
-38.1232
-37.9371
-37.548
-36.9981
-36.3294
-35.5736
-34.75
-33.8664
-32.9193
-31.8938
-30.7649
-29.5083
-28.1337
-26.7218
-25.3046
-23.8864
-22.4637
-21.0392
-19.6441
-18.3632
-17.208
-16.1519
-15.1644
-14.2223
-13.31
-12.4174
-11.538
-10.6677
-9.80354
-8.94375
-8.087
-7.23239
-6.37929
-5.52726
-4.67599
-3.82526