# vtk DataFile Version 2.0
I need something to put here
ASCII

DATASET STRUCTURED_GRID
DIMENSIONS 41 21 21
POINTS 18081 float
0.000000 0.000000 0.000000
0.100000 0.000000 0.000000
0.200000 0.000000 0.000000
0.300000 0.000000 0.000000
0.400000 0.000000 0.000000
0.500000 0.000000 0.000000
0.600000 0.000000 0.000000
0.700000 0.000000 0.000000
0.800000 0.000000 0.000000
0.900000 0.000000 0.000000
1.000000 0.000000 0.000000
1.100000 0.000000 0.000000
1.200000 0.000000 0.000000
1.300000 0.000000 0.000000
1.400000 0.000000 0.000000
1.500000 0.000000 0.000000
1.600000 0.000000 0.000000
1.700000 0.000000 0.000000
1.800000 0.000000 0.000000
1.900000 0.000000 0.000000
2.000000 0.000000 0.000000
2.100000 0.000000 0.000000
2.200000 0.000000 0.000000
2.300000 0.000000 0.000000
2.400000 0.000000 0.000000
2.500000 0.000000 0.000000
2.600000 0.000000 0.000000
2.700000 0.000000 0.000000
2.800000 0.000000 0.000000
2.900000 0.000000 0.000000
3.000000 0.000000 0.000000
3.100000 0.000000 0.000000
3.200000 0.000000 0.000000
3.300000 0.000000 0.000000
3.400000 0.000000 0.000000
3.500000 0.000000 0.000000
3.600000 0.000000 0.000000
3.700000 0.000000 0.000000
3.800000 0.000000 0.000000
3.900000 0.000000 0.000000
4.000000 0.000000 0.000000
0.000000 0.100000 0.000000
0.100000 0.100000 0.000000
0.200000 0.100000 0.000000
0.300000 0.100000 0.000000
0.400000 0.100000 0.000000
0.500000 0.100000 0.000000
0.600000 0.100000 0.000000
0.700000 0.100000 0.000000
0.800000 0.100000 0.000000
0.900000 0.100000 0.000000
1.000000 0.100000 0.000000
1.100000 0.100000 0.000000
1.200000 0.100000 0.000000
1.300000 0.100000 0.000000
1.400000 0.100000 0.000000
1.500000 0.100000 0.000000
1.600000 0.100000 0.000000
1.700000 0.100000 0.000000
1.800000 0.100000 0.000000
1.900000 0.100000 0.000000
2.000000 0.100000 0.000000
2.100000 0.100000 0.000000
2.200000 0.100000 0.000000
2.300000 0.100000 0.000000
2.400000 0.100000 0.000000
2.500000 0.100000 0.000000
2.600000 0.100000 0.000000
2.700000 0.100000 0.000000
2.800000 0.100000 0.000000
2.900000 0.100000 0.000000
3.000000 0.100000 0.000000
3.100000 0.100000 0.000000
3.200000 0.100000 0.000000
3.300000 0.100000 0.000000
3.400000 0.100000 0.000000
3.500000 0.100000 0.000000
3.600000 0.100000 0.000000
3.700000 0.100000 0.000000
3.800000 0.100000 0.000000
3.900000 0.100000 0.000000
4.000000 0.100000 0.000000
0.000000 0.200000 0.000000
0.100000 0.200000 0.000000
0.200000 0.200000 0.000000
0.300000 0.200000 0.000000
0.400000 0.200000 0.000000
0.500000 0.200000 0.000000
0.600000 0.200000 0.000000
0.700000 0.200000 0.000000
0.800000 0.200000 0.000000
0.900000 0.200000 0.000000
1.000000 0.200000 0.000000
1.100000 0.200000 0.000000
1.200000 0.200000 0.000000
1.300000 0.200000 0.000000
1.400000 0.200000 0.000000
1.500000 0.200000 0.000000
1.600000 0.200000 0.000000
1.700000 0.200000 0.000000
1.800000 0.200000 0.000000
1.900000 0.200000 0.000000
2.000000 0.200000 0.000000
2.100000 0.200000 0.000000
2.200000 0.200000 0.000000
2.300000 0.200000 0.000000
2.400000 0.200000 0.000000
2.500000 0.200000 0.000000
2.600000 0.200000 0.000000
2.700000 0.200000 0.000000
2.800000 0.200000 0.000000
2.900000 0.200000 0.000000
3.000000 0.200000 0.000000
3.100000 0.200000 0.000000
3.200000 0.200000 0.000000
3.300000 0.200000 0.000000
3.400000 0.200000 0.000000
3.500000 0.200000 0.000000
3.600000 0.200000 0.000000
3.700000 0.200000 0.000000
3.800000 0.200000 0.000000
3.900000 0.200000 0.000000
4.000000 0.200000 0.000000
0.000000 0.300000 0.000000
0.100000 0.300000 0.000000
0.200000 0.300000 0.000000
0.300000 0.300000 0.000000
0.400000 0.300000 0.000000
0.500000 0.300000 0.000000
0.600000 0.300000 0.000000
0.700000 0.300000 0.000000
0.800000 0.300000 0.000000
0.900000 0.300000 0.000000
1.000000 0.300000 0.000000
1.100000 0.300000 0.000000
1.200000 0.300000 0.000000
1.300000 0.300000 0.000000
1.400000 0.300000 0.000000
1.500000 0.300000 0.000000
1.600000 0.300000 0.000000
1.700000 0.300000 0.000000
1.800000 0.300000 0.000000
1.900000 0.300000 0.000000
2.000000 0.300000 0.000000
2.100000 0.300000 0.000000
2.200000 0.300000 0.000000
2.300000 0.300000 0.000000
2.400000 0.300000 0.000000
2.500000 0.300000 0.000000
2.600000 0.300000 0.000000
2.700000 0.300000 0.000000
2.800000 0.300000 0.000000
2.900000 0.300000 0.000000
3.000000 0.300000 0.000000
3.100000 0.300000 0.000000
3.200000 0.300000 0.000000
3.300000 0.300000 0.000000
3.400000 0.300000 0.000000
3.500000 0.300000 0.000000
3.600000 0.300000 0.000000
3.700000 0.300000 0.000000
3.800000 0.300000 0.000000
3.900000 0.300000 0.000000
4.000000 0.300000 0.000000
0.000000 0.400000 0.000000
0.100000 0.400000 0.000000
0.200000 0.400000 0.000000
0.300000 0.400000 0.000000
0.400000 0.400000 0.000000
0.500000 0.400000 0.000000
0.600000 0.400000 0.000000
0.700000 0.400000 0.000000
0.800000 0.400000 0.000000
0.900000 0.400000 0.000000
1.000000 0.400000 0.000000
1.100000 0.400000 0.000000
1.200000 0.400000 0.000000
1.300000 0.400000 0.000000
1.400000 0.400000 0.000000
1.500000 0.400000 0.000000
1.600000 0.400000 0.000000
1.700000 0.400000 0.000000
1.800000 0.400000 0.000000
1.900000 0.400000 0.000000
2.000000 0.400000 0.000000
2.100000 0.400000 0.000000
2.200000 0.400000 0.000000
2.300000 0.400000 0.000000
2.400000 0.400000 0.000000
2.500000 0.400000 0.000000
2.600000 0.400000 0.000000
2.700000 0.400000 0.000000
2.800000 0.400000 0.000000
2.900000 0.400000 0.000000
3.000000 0.400000 0.000000
3.100000 0.400000 0.000000
3.200000 0.400000 0.000000
3.300000 0.400000 0.000000
3.400000 0.400000 0.000000
3.500000 0.400000 0.000000
3.600000 0.400000 0.000000
3.700000 0.400000 0.000000
3.800000 0.400000 0.000000
3.900000 0.400000 0.000000
4.000000 0.400000 0.000000
0.000000 0.500000 0.000000
0.100000 0.500000 0.000000
0.200000 0.500000 0.000000
0.300000 0.500000 0.000000
0.400000 0.500000 0.000000
0.500000 0.500000 0.000000
0.600000 0.500000 0.000000
0.700000 0.500000 0.000000
0.800000 0.500000 0.000000
0.900000 0.500000 0.000000
1.000000 0.500000 0.000000
1.100000 0.500000 0.000000
1.200000 0.500000 0.000000
1.300000 0.500000 0.000000
1.400000 0.500000 0.000000
1.500000 0.500000 0.000000
1.600000 0.500000 0.000000
1.700000 0.500000 0.000000
1.800000 0.500000 0.000000
1.900000 0.500000 0.000000
2.000000 0.500000 0.000000
2.100000 0.500000 0.000000
2.200000 0.500000 0.000000
2.300000 0.500000 0.000000
2.400000 0.500000 0.000000
2.500000 0.500000 0.000000
2.600000 0.500000 0.000000
2.700000 0.500000 0.000000
2.800000 0.500000 0.000000
2.900000 0.500000 0.000000
3.000000 0.500000 0.000000
3.100000 0.500000 0.000000
3.200000 0.500000 0.000000
3.300000 0.500000 0.000000
3.400000 0.500000 0.000000
3.500000 0.500000 0.000000
3.600000 0.500000 0.000000
3.700000 0.500000 0.000000
3.800000 0.500000 0.000000
3.900000 0.500000 0.000000
4.000000 0.500000 0.000000
0.000000 0.600000 0.000000
0.100000 0.600000 0.000000
0.200000 0.600000 0.000000
0.300000 0.600000 0.000000
0.400000 0.600000 0.000000
0.500000 0.600000 0.000000
0.600000 0.600000 0.000000
0.700000 0.600000 0.000000
0.800000 0.600000 0.000000
0.900000 0.600000 0.000000
1.000000 0.600000 0.000000
1.100000 0.600000 0.000000
1.200000 0.600000 0.000000
1.300000 0.600000 0.000000
1.400000 0.600000 0.000000
1.500000 0.600000 0.000000
1.600000 0.600000 0.000000
1.700000 0.600000 0.000000
1.800000 0.600000 0.000000
1.900000 0.600000 0.000000
2.000000 0.600000 0.000000
2.100000 0.600000 0.000000
2.200000 0.600000 0.000000
2.300000 0.600000 0.000000
2.400000 0.600000 0.000000
2.500000 0.600000 0.000000
2.600000 0.600000 0.000000
2.700000 0.600000 0.000000
2.800000 0.600000 0.000000
2.900000 0.600000 0.000000
3.000000 0.600000 0.000000
3.100000 0.600000 0.000000
3.200000 0.600000 0.000000
3.300000 0.600000 0.000000
3.400000 0.600000 0.000000
3.500000 0.600000 0.000000
3.600000 0.600000 0.000000
3.700000 0.600000 0.000000
3.800000 0.600000 0.000000
3.900000 0.600000 0.000000
4.000000 0.600000 0.000000
0.000000 0.700000 0.000000
0.100000 0.700000 0.000000
0.200000 0.700000 0.000000
0.300000 0.700000 0.000000
0.400000 0.700000 0.000000
0.500000 0.700000 0.000000
0.600000 0.700000 0.000000
0.700000 0.700000 0.000000
0.800000 0.700000 0.000000
0.900000 0.700000 0.000000
1.000000 0.700000 0.000000
1.100000 0.700000 0.000000
1.200000 0.700000 0.000000
1.300000 0.700000 0.000000
1.400000 0.700000 0.000000
1.500000 0.700000 0.000000
1.600000 0.700000 0.000000
1.700000 0.700000 0.000000
1.800000 0.700000 0.000000
1.900000 0.700000 0.000000
2.000000 0.700000 0.000000
2.100000 0.700000 0.000000
2.200000 0.700000 0.000000
2.300000 0.700000 0.000000
2.400000 0.700000 0.000000
2.500000 0.700000 0.000000
2.600000 0.700000 0.000000
2.700000 0.700000 0.000000
2.800000 0.700000 0.000000
2.900000 0.700000 0.000000
3.000000 0.700000 0.000000
3.100000 0.700000 0.000000
3.200000 0.700000 0.000000
3.300000 0.700000 0.000000
3.400000 0.700000 0.000000
3.500000 0.700000 0.000000
3.600000 0.700000 0.000000
3.700000 0.700000 0.000000
3.800000 0.700000 0.000000
3.900000 0.700000 0.000000
4.000000 0.700000 0.000000
0.000000 0.800000 0.000000
0.100000 0.800000 0.000000
0.200000 0.800000 0.000000
0.300000 0.800000 0.000000
0.400000 0.800000 0.000000
0.500000 0.800000 0.000000
0.600000 0.800000 0.000000
0.700000 0.800000 0.000000
0.800000 0.800000 0.000000
0.900000 0.800000 0.000000
1.000000 0.800000 0.000000
1.100000 0.800000 0.000000
1.200000 0.800000 0.000000
1.300000 0.800000 0.000000
1.400000 0.800000 0.000000
1.500000 0.800000 0.000000
1.600000 0.800000 0.000000
1.700000 0.800000 0.000000
1.800000 0.800000 0.000000
1.900000 0.800000 0.000000
2.000000 0.800000 0.000000
2.100000 0.800000 0.000000
2.200000 0.800000 0.000000
2.300000 0.800000 0.000000
2.400000 0.800000 0.000000
2.500000 0.800000 0.000000
2.600000 0.800000 0.000000
2.700000 0.800000 0.000000
2.800000 0.800000 0.000000
2.900000 0.800000 0.000000
3.000000 0.800000 0.000000
3.100000 0.800000 0.000000
3.200000 0.800000 0.000000
3.300000 0.800000 0.000000
3.400000 0.800000 0.000000
3.500000 0.800000 0.000000
3.600000 0.800000 0.000000
[...]
CELL_DATA 16000
SCALARS pressure float 1
LOOKUP_TABLE default
38.3057
38.1322
37.7941
37.3192
36.7285
36.0339
35.2387
34.34
33.331
32.2048
30.9577
29.5928
28.1222
26.5672
24.956
23.321
21.6959
20.1123
18.5972
17.1711
15.8459
14.6252
13.5049
12.4753
11.5235
10.6357
9.79842
8.99985
8.23006
7.48113
6.74692
6.02289
5.30572
4.59305
3.88326
3.17528
2.46841
1.76225
1.05666
0.351741
38.3596
38.1619
37.8104
37.3281
36.7334
36.0369
35.2411
34.3426
33.3343
32.2087
30.9619
29.5967
28.1253
26.5689
24.9562
23.3198
21.6934
20.1088
18.5931
17.1668
15.8421
14.6222
13.5028
12.4741
11.5231
10.6359
9.799
9.00064
8.23093
7.48197
6.74769
6.02355
5.30627
4.59349
3.88361
3.17555
2.46861
1.76238
1.05671
0.351655
38.4807
38.2482
37.8744
37.3785
36.7767
36.078
35.2836
34.3886
33.3841
32.2608
31.0129
29.6424
28.1613
26.592
24.9645
23.3131
21.6728
20.0764
18.5521
17.1211
15.7957
14.5786
13.4643
12.442
11.4975
10.6163
9.78449
8.99026
8.22372
7.47712
6.74453
6.02157
5.30507
4.59281
3.88326
3.17539
2.46853
1.76232
1.05659
0.351477
38.6495
38.3764
37.9748
37.462
36.8521
36.1523
35.3621
34.4742
33.477
32.3579
31.1079
29.727
28.2275
26.6337
24.9787
23.2993
21.633
20.0147
18.4744
17.0347
15.7081
14.4962
13.3917
12.3811
11.4487
10.5787
9.75644
8.96995
8.20941
7.4673
6.73796
6.01729
5.30237
4.59117
3.8823
3.17485
2.46823
1.76212
1.05642
0.351317
38.8454
38.5312
38.1005
37.5699
36.9525
36.2537
35.471
34.5943
33.6081
32.4953
31.2423
29.8465
28.3203
26.6914
24.997
23.2777
21.5746
19.9251
18.3622
16.9105
15.5828
14.379
13.2886
12.2951
11.3801
10.5258
9.71705
8.94141
8.18927
7.45342
6.72863
6.01117
5.29846
4.58875
3.88085
3.17402
2.46776
1.76185
1.05624
0.351211
39.048
38.6962
38.2379
37.6909
37.0677
36.3724
35.6003
34.7383
33.7665
32.6621
31.4061
29.992
28.4329
26.7605
25.0176
23.2496
21.5014
19.814
18.2237
16.7578
15.4296
14.2365
13.1641
12.1917
11.2978
10.4627
9.67019
8.90753
8.16538
7.43696
6.71755
6.00389
5.2938
4.58585
3.87911
3.173
2.4672
1.76155
1.05608
0.351162
39.238
38.8543
38.3724
37.8118
37.1849
36.495
35.7355
34.8903
33.935
32.8406
31.582
30.1486
28.5537
26.8342
25.0389
23.2183
21.4216
19.6934
18.0737
16.5931
15.2652
14.0845
13.0319
12.0826
11.2115
10.3968
9.62133
8.8723
8.14058
7.41991
6.70608
5.99635
5.28897
4.58283
3.87729
3.17195
2.46662
1.76126
1.05596
0.35116
39.3978
38.9895
38.4892
37.9184
37.2897
36.606
35.8592
35.0305
34.0913
33.0071
31.7468
30.2957
28.6673
26.9035
25.0587
23.1884
21.3459
19.5794
17.9324
16.4386
15.1117
13.9432
12.9098
11.9823
11.1324
10.3366
9.57687
8.84031
8.11811
7.40447
6.69571
5.98954
5.2846
4.58011
3.87565
3.17101
2.46611
1.76101
1.05588
0.351186
39.5132
39.0881
38.5753
37.9978
37.3687
36.6903
35.9538
35.1383
34.2121
33.1364
31.8753
30.4107
28.7565
26.958
25.0743
23.1648
21.2865
19.4901
17.8221
16.3184
14.9926
13.834
12.8157
11.9052
11.0719
10.2906
9.54301
8.81601
8.10107
7.39278
6.68786
5.98438
5.2813
4.57805
3.87441
3.17029
2.46573
1.76083
1.05583
0.351219
39.5736
39.1401
38.621
38.0402
37.4111
36.7359
36.0051
35.197
34.278
33.2071
31.9457
30.474
28.8058
26.9883
25.0831
23.1519
21.2537
19.441
17.7615
16.2526
14.9276
13.7745
12.7646
11.8634
11.0391
10.2658
9.52472
8.80289
8.09187
7.38648
6.68363
5.98161
5.27952
4.57694
3.87374
3.16991
2.46552
1.76074
1.05581
0.351242
39.5737
39.1402
38.6211
38.0404
37.4112
36.736
36.0052
35.1971
34.2782
33.2072
31.9458
30.4741
28.8059
26.9884
25.0832
23.152
21.2538
19.4411
17.7616
16.2526
14.9277
13.7746
12.7646
11.8634
11.0391
10.2658
9.52472
8.80288
8.09186
7.38647
6.68362
5.9816
5.27951
4.57694
3.87374
3.1699
2.46552
1.76074
1.05581
0.351243
39.5135
39.0884
38.5756
37.9981
37.369
36.6907
35.9541
35.1387
34.2125
33.1368
31.8756
30.4111
28.7569
26.9583
25.0746
23.1651
21.2867
19.4904
17.8223
16.3186
14.9928
13.8341
12.8158
11.9052
11.0718
10.2906
9.54298
8.81597
8.10103
7.39275
6.68783
5.98436
5.28128
4.57804
3.8744
3.17028
2.46572
1.76083
1.05583
0.351224
39.3983
38.99
38.4897
37.9189
37.2903
36.6065
35.8598
35.0311
34.0919
33.0078
31.7475
30.2963
28.6679
26.904
25.0591
23.1887
21.3462
19.5797
17.9327
16.4388
15.1118
13.9433
12.9098
11.9822
11.1323
10.3365
9.57681
8.84025
8.11806
7.40443
6.69567
5.9895
5.28457
4.58009
3.87563
3.171
2.46611
1.76101
1.05588
0.351194
39.2386
38.855
38.3731
37.8125
37.1856
36.4957
35.7363
34.8913
33.9359
32.8416
31.583
30.1495
28.5546
26.835
25.0395
23.2188
21.4219
19.6936
18.0738
16.5932
15.2652
14.0844
13.0319
12.0825
11.2114
10.3967
9.62123
8.87221
8.1405
7.41984
6.70602
5.9963
5.28893
4.58281
3.87727
3.17194
2.46662
1.76125
1.05597
0.35117
39.0488
38.697
38.2387
37.6918
37.0686
36.3734
35.6014
34.7395
33.7678
32.6634
31.4074
29.9933
28.434
26.7615
25.0184
23.2502
21.5018
19.8142
18.2237
16.7577
15.4295
14.2363
13.1639
12.1915
11.2977
10.4626
9.67003
8.9074
8.16527
7.43687
6.71748
6.00383
5.29375
4.58581
3.87908
3.17299
2.46719
1.76154
1.05609
0.351173
38.8464
38.5322
38.1014
37.5709
36.9535
36.2549
35.4723
34.5957
33.6096
32.4968
31.2439
29.8481
28.3217
26.6926
24.9979
23.2783
21.5749
19.9252
18.3621
16.9103
15.5826
14.3787
13.2883
12.2948
11.3798
10.5256
9.71685
8.94124
8.18913
7.45331
6.72854
6.0111
5.29841
4.58871
3.88082
3.174
2.46775
1.76185
1.05624
0.351222
38.6506
38.3774
37.9759
37.4631
36.8533
36.1536
35.3635
34.4757
33.4787
32.3596
31.1097
29.7287
28.229
26.635
24.9797
23.3
21.6333
20.0147
18.4742
17.0344
15.7077
14.4958
13.3912
12.3807
11.4484
10.5784
9.75619
8.96975
8.20925
7.46717
6.73785
6.01721
5.30231
4.59112
3.88227
3.17483
2.46822
1.76212
1.05642
0.351328
38.4818
38.2493
37.8755
37.3796
36.778
36.0794
35.2851
34.3902
33.3858
32.2626
31.0148
29.6442
28.1629
26.5933
24.9655
23.3138
21.6731
20.0764
18.5519
17.1208
15.7952
14.578
13.4638
12.4415
11.4971
10.6159
9.78421
8.99003
8.22354
7.47698
6.74442
6.02148
5.30501
4.59276
3.88323
3.17536
2.46852
1.76231
1.05659
0.351486
38.3607
38.163
37.8115
37.3292
36.7347
36.0382
35.2426
34.3442
33.3361
32.2106
30.9638
29.5985
28.1269
26.5703
24.9572
23.3204
21.6937
20.1088
18.5929
17.1664
15.8416
14.6216
13.5023
12.4736
11.5227
10.6355
9.79871
9.0004
8.23074
7.48182
6.74757
6.02346
5.3062
4.59344
3.88358
3.17553
2.4686
1.76238
1.05671
0.351661
38.3068
38.1333
37.7953
37.3204
36.7298
36.0352
35.2402
34.3416
33.3328
32.2067
30.9595
29.5946
28.1239
26.5686
24.957
23.3217
21.6963
20.1123
18.597
17.1707
15.8454
14.6247
13.5044
12.4748
11.5231
10.6353
9.79812
8.99961
8.22987
7.48098
6.74681
6.0228
5.30565
4.593
3.88323
3.17526
2.46839
1.76224
1.05666
0.351744
38.3596
38.1619
37.8104
37.3281
36.7334
36.0369
35.2411
34.3426
33.3343
32.2087
30.9619
29.5967
28.1252
26.5689
24.9562
23.3198
21.6934
20.1088
18.5931
17.1669
15.8421
14.6222
13.5028
12.4741
11.5232
10.6359
9.79901
9.00065
8.23093
7.48197
6.74769
6.02355
5.30627
4.59349
3.88361
3.17555
2.46861
1.76238
1.05671
0.351655
38.3987
38.1637
37.7922
37.2996
36.6989
35.9981
35.1987
34.2971
33.2866
32.1607
30.916
29.5558
28.0922
26.5461
24.9452
23.3211
21.7066
20.1326
18.6253
17.2047
15.8826
14.6626
13.541
12.5085
11.5529
10.6607
9.81915
9.01657
8.24324
7.4913
6.75464
6.02864
5.30993
4.5961
3.88545
3.17684
2.46952
1.76304
1.05715
0.351784
38.5131
38.2341
37.8346
37.3248
36.7144
36.0085
35.2072
34.3058
33.2965
32.1717
30.9271
29.5656
28.0993
26.5494
24.9444
23.3164
21.6986
20.1221
18.6134
17.1926
15.8717
14.6537
13.5345
12.5045
11.551
10.6604
9.81997
9.01805
8.24501
7.49312
6.75634
6.03015
5.31122
4.59716
3.8863
3.17751
2.47003
1.76339
1.05734
0.351747
38.6833
38.3539
37.9214
37.391
36.7692
36.0589
35.2582
34.3602
33.355
32.2326
30.9864
29.6179
28.1392
26.5732
24.9503
23.3044
21.6703
20.0803
18.562
17.1366
15.8158
14.6021
13.4898
12.4679
11.5223
10.639
9.80459
9.00741
8.23795
7.48863
6.75364
6.02864
5.31048
4.59688
3.88629
3.17763
2.47019
1.76353
1.05741
0.351707
38.8852
38.5044
38.0376
37.4859
36.8531
36.1401
35.3425
34.4512
33.4531
32.3345
31.0853
29.7049
28.2056
26.6129
24.9604
23.285
21.6238
20.0111
18.4768
17.0431
15.7223
14.5153
13.4139
12.4049
11.4724
10.6009
9.77643
8.98727
8.22397
7.47922
6.7475
6.02478
5.30815
4.59556
3.8856
3.17732
2.47008
1.76352
1.05742
0.35171
39.0957
38.6671
38.1679
37.5963
36.9542
36.2404
35.4487
34.5669
33.5785
32.4651
31.2123
29.8166
28.2906
26.6634
24.9729
23.2596
21.5636
19.9219
18.3667
16.9227
15.6021
14.4038
13.3166
12.3242
11.4082
10.5517
9.73992
8.96096
8.20552
7.46661
6.73912
6.01937
5.30477
4.59353
3.88445
3.17671
2.4698
1.76341
1.05741
0.351761
39.2936
38.8239
38.2967
37.7081
37.0588
36.3463
35.5622
34.6918
33.7147
32.6078
31.3517
29.9394
28.3839
26.7186
24.9863
23.2313
21.4973
19.8237
18.2457
16.7905
15.4706
14.2824
13.2111
12.2368
11.3389
10.4986
9.70048
8.93248
8.18548
7.45286
6.72992
6.01337
5.30097
4.59122
3.8831
3.17597
2.46943
1.76326
1.05739
0.351847
39.4603
38.9582
38.4089
37.8074
37.1532
36.4431
35.667
34.8081
33.8423
32.7421
31.4835
30.0559
28.4725
26.7711
24.9991
23.2045
21.4343
19.7305
18.131
16.6658
15.347
14.1687
13.1127
12.1556
11.2746
10.4494
9.664
8.90613
8.16692
7.4401
6.72135
6.00776
5.29741
4.58902
3.8818
3.17525
2.46907
1.76312
1.05738
0.351945
39.5806
39.0563
38.4918
37.8815
37.2245
36.5168
35.7475
34.8978
33.9412
32.8468
31.5866
30.1473
28.5424
26.8128
25.0094
23.1834
21.3847
19.6573
18.0413
16.5685
15.251
14.0807
13.0366
12.0931
11.2251
10.4116
9.63601
8.88593
8.15269
7.43031
6.71477
6.00345
5.29465
4.58732
3.88079
3.17468
2.46878
1.763
1.05738
0.352028
39.6436
39.108
38.5358
37.9211
37.2629
36.5567
35.7912
34.9467
33.9953
32.9041
31.6431
30.1977
28.5811
26.836
25.0153
23.1719
21.3573
19.617
17.9921
16.5153
15.1986
14.0327
12.9952
12.0591
11.1983
10.3912
9.62084
8.87498
8.14498
7.42501
6.7112
6.00111
5.29316
4.58639
3.88024
3.17437
2.46862
1.76294
1.05738
0.352076
39.6437
39.1081
38.5359
37.9212
37.263
36.5568
35.7913
34.9468
33.9954
32.9042
31.6432
30.1978
28.5811
26.8361
25.0154
23.172
21.3574
19.6171
17.9922
16.5154
15.1986
14.0328
12.9953
12.0591
11.1983
10.3912
9.62083
8.87497
8.14497
7.425
6.7112
6.0011
5.29315
4.58639
3.88024
3.17437
2.46862
1.76293
1.05738
0.352077
39.5809
39.0566
38.4921
37.8818
37.2248
36.5171
35.7479
34.8981
33.9416
32.8471
31.5869
30.1476
28.5427
26.813
25.0096
23.1837
21.3849
19.6575
18.0415
16.5687
15.2511
14.0808
13.0367
12.0931
11.2251
10.4116
9.63598
8.8859
8.15266
7.43028
6.71475
6.00343
5.29464
4.58731
3.88078
3.17467
2.46877
1.76299
1.05737
0.35203
39.4608
38.9587
38.4094
37.8079
37.1538
36.4436
35.6676
34.8087
33.8429
32.7428
31.4841
30.0565
28.4731
26.7716
24.9995
23.2048
21.4346
19.7308
18.1312
16.666
15.3472
14.1688
13.1127
12.1556
11.2745
10.4493
9.66393
8.90607
8.16687
7.44005
6.72131
6.00773
5.29738
4.589
3.88179
3.17523
2.46906
1.76311
1.05738
0.351947
39.2943
38.8246
38.2973
37.7088
37.0596
36.347
35.563
34.6927
33.7156
32.6087
31.3527
29.9403
28.3847
26.7193
24.9869
23.2318
21.4976
19.8239
18.2458
16.7906
15.4707
14.2823
13.211
12.2367
11.3388
10.4985
9.70038
8.93239
8.1854
7.45279
6.72986
6.01332
5.30094
4.59119
3.88308
3.17595
2.46942
1.76325
1.05738
0.35185
39.0966
38.6679
38.1687
37.5972
36.9551
36.2413
35.4497
34.568
33.5797
32.4663
31.2136
29.8179
28.2918
26.6644
24.9736
23.2601
21.564
19.9221
18.3668
16.9226
15.602
14.4036
13.3165
12.324
11.408
10.5515
9.73977
8.96083
8.20541
7.46652
6.73904
6.01931
5.30472
4.5935
3.88442
3.17669
2.46978
1.7634
1.05739
0.351764
38.8862
38.5053
38.0386
37.4869
36.8542
36.1412
35.3437
34.4525
33.4545
32.336
31.0868
29.7064
28.2069
26.614
24.9613
23.2855
21.6241
20.0112
18.4767
17.0429
15.722
14.515
13.4136
12.4046
11.4721
10.6006
9.77622
8.9871
8.22383
7.4791
6.74741
6.0247
5.30809
4.59552
3.88557
3.17729
2.47006
1.7635
1.05741
0.351714
38.6843
38.3549
37.9225
37.3921
36.7704
36.0602
35.2595
34.3616
33.3566
32.2343
30.9881
29.6195
28.1407
26.5744
24.9512
23.305
21.6706
20.0803
18.5619
17.1363
15.8154
14.6017
13.4894
12.4675
11.522
10.6387
9.80434
9.00721
8.23778
7.48849
6.75353
6.02856
5.31041
4.59684
3.88626
3.1776
2.47017
1.76352
1.0574
0.351711
38.5142
38.2352
37.8357
37.326
36.7156
36.0098
35.2086
34.3073
33.2982
32.1734
30.9289
29.5673
28.1008
26.5507
24.9453
23.317
21.6989
20.1221
18.6132
17.1923
15.8712
14.6532
13.534
12.504
11.5506
10.6601
9.8197
9.01782
8.24483
7.49297
6.75623
6.03006
5.31115
4.59711
3.88627
3.17748
2.47001
1.76338
1.05734
0.351751
38.3999
38.1648
37.7934
37.3007
36.7002
35.9994
35.2001
34.2987
33.2884
32.1625
30.9178
29.5575
28.0938
26.5474
24.9462
23.3217
21.7069
20.1326
18.6251
17.2043
15.8821
14.6621
13.5404
12.508
11.5524
10.6604
9.81885
9.01633
8.24305
7.49115
6.75452
6.02855
5.30987
4.59605
3.88542
3.17682
2.46951
1.76303
1.05715
0.351788
38.3607
38.163
37.8115
37.3292
36.7346
36.0382
35.2425
34.3442
33.336
32.2106
30.9637
29.5985
28.1269
26.5703
24.9572
23.3204
21.6937
20.1088
18.5929
17.1664
15.8416
14.6216
13.5023
12.4736
11.5227
10.6355
9.79871
9.00041
8.23074
7.48182
6.74758
6.02347
5.3062
4.59344
3.88358
3.17553
2.4686
1.76238
1.0567
0.351658
38.4807
38.2482
37.8744
37.3785
36.7767
36.078
35.2836
34.3885
33.384
32.2607
31.0128
29.6423
28.1612
26.5919
24.9645
23.3131
21.6728
20.0764
18.5522
17.1212
15.7958
14.5786
13.4644
12.442
11.4976
10.6163
9.78452
8.99028
8.22374
7.47713
6.74454
6.02157
5.30507
4.59282
3.88326
3.17539
2.46854
1.76232
1.05659
0.351477
38.5131
38.2341
37.8346
37.3248
36.7143
36.0085
35.2072
34.3057
33.2964
32.1716
30.9271
29.5656
28.0992
26.5493
24.9443
23.3164
21.6986
20.1221
18.6134
17.1927
15.8717
14.6538
13.5346
12.5045
11.551
10.6605
9.81999
9.01806
8.24502
7.49312
6.75634
6.03015
5.31122
4.59716
3.88631
3.17751
2.47003
1.76339
1.05735
0.351747
38.6203
38.2931
37.861
37.3306
36.7075
35.9939
35.1882
34.2846
33.2749
32.1508
30.9077
29.548
28.0838
26.5368
24.9357
23.3124
21.6996
20.1278
18.6233
17.2062
15.8882
14.6722
13.5538
12.5235
11.5688
10.6765
9.8339
9.02976
8.2546
7.50078
6.76235
6.03478
5.31473
4.59979
3.88826
3.17895
2.47108
1.76413
1.05779
0.351795
38.7888
38.4064
37.9371
37.3828
36.7456
36.0253
35.2181
34.3163
33.3098
32.1881
30.9444
29.5796
28.106
26.5473
24.9339
23.2991
21.6763
20.0964
18.5867
17.1681
15.8523
14.6412
13.5291
12.5052
11.5562
10.6685
9.82937
9.02767
8.2541
7.50124
6.76331
6.03594
5.3159
4.60088
3.8892
3.17974
2.47171
1.7646
1.05806
0.351838
38.9945
38.5548
38.0468
37.4679
36.8173
36.0921
35.2865
34.3904
33.3907
32.2732
31.0273
29.6513
28.1582
26.575
24.9359
23.2763
21.6312
20.0328
18.5101
17.0862
15.7727
14.5697
13.4688
12.457
11.5194
10.6415
9.81034
9.01475
8.24569
7.49603
6.76028
6.03434
5.31521
4.60071
3.88933
3.18
2.47201
1.76487
1.05826
0.351932
39.2125
38.7183
38.1735
37.5717
36.9094
36.1818
35.3808
34.4938
33.5042
32.393
31.1443
29.7528
28.2319
26.6145
24.9397
23.2459
21.5695
19.9448
18.4033
16.9715
15.6612
14.4693
13.3837
12.3883
11.4662
10.6018
9.78161
8.9946
8.23199
7.487
6.75454
6.03085
5.31321
4.59967
3.88887
3.17988
2.47206
1.765
1.05841
0.352083
39.4194
38.8776
38.3005
37.6791
37.0076
36.2799
35.4858
34.6104
33.6331
32.5302
31.2794
29.8703
28.3169
26.6602
24.9446
23.2115
21.4995
19.8444
18.2808
16.8403
15.5341
14.3554
13.2876
12.3108
11.4061
10.5567
9.74874
8.97132
8.21594
7.47624
6.74754
6.02646
5.31056
4.59817
3.88809
3.17954
2.47198
1.76505
1.05854
0.352268
39.5947
39.0149
38.4122
37.7754
37.0976
36.3712
35.5848
34.7213
33.7569
32.6629
31.4112
29.9857
28.4005
26.7055
24.95
23.1785
21.4316
19.7469
18.1617
16.7132
15.4119
14.2466
13.196
12.2372
11.3491
10.5139
9.71752
8.94913
8.20057
7.46586
6.74072
6.02211
5.30789
4.5966
3.88724
3.17913
2.47183
1.76506
1.05864
0.352453
39.7215
39.1154
38.495
37.8478
37.1661
36.4415
35.6617
34.808
33.8542
32.7679
31.5159
30.0781
28.4685
26.7433
24.9555
23.1522
21.3768
19.6688
18.0671
16.6129
15.3159
14.1614
13.1246
12.1799
11.3048
10.4806
9.69326
8.93187
8.18858
7.45774
6.73536
6.01867
5.30576
4.59534
3.88654
3.17878
2.47169
1.76505
1.05872
0.352603
39.788
39.1685
38.539
37.8866
37.2031
36.4797
35.7036
34.8554
33.9076
32.8256
31.5737
30.1295
28.5069
26.7651
24.9591
23.1376
21.3461
19.6253
18.015
16.5579
15.2634
14.1149
13.0857
12.1487
11.2806
10.4625
9.68004
8.92246
8.18204
7.4533
6.73243
6.01678
5.30459
4.59464
3.88614
3.17858
2.47161
1.76504
1.05876
0.352686
39.7881
39.1686
38.5391
37.8867
37.2032
36.4798
35.7037
34.8555
33.9077
32.8257
31.5737
30.1296
28.507
26.7652
24.9591
23.1377
21.3462
19.6254
18.0151
16.558
15.2635
14.1149
13.0857
12.1487
11.2806
10.4625
9.68003
8.92245
8.18203
7.45329
6.73242
6.01678
5.30458
4.59463
3.88614
3.17857
2.47161
1.76504
1.05876
0.352686
39.7218
39.1157
38.4953
37.8481
37.1664
36.4419
35.662
34.8083
33.8545
32.7682
31.5162
30.0784
28.4688
26.7435
24.9557
23.1524
21.3771
19.6691
18.0674
16.6132
15.3161
14.1615
13.1247
12.18
11.3047
10.4806
9.69323
8.93183
8.18855
7.45771
6.73534
6.01865
5.30575
4.59533
3.88653
3.17877
2.47169
1.76505
1.05871
0.352603
39.5952
39.0154
38.4127
37.7759
37.0981
36.3718
35.5854
34.7218
33.7575
32.6635
31.4118
29.9863
28.401
26.7059
24.9504
23.1788
21.4319
19.7472
18.162
16.7134
15.4121
14.2467
13.196
12.2372
11.349
10.5138
9.71745
8.94907
8.20051
7.46581
6.74068
6.02207
5.30786
4.59658
3.88722
3.17912
2.47182
1.76506
1.05864
0.352453
39.4201
38.8783
38.3012
37.6798
37.0084
36.2806
35.4866
34.6112
33.634
32.5311
31.2803
29.8713
28.3177
26.6609
24.9451
23.2119
21.4999
19.8447
18.281
16.8404
15.5341
14.3554
13.2875
12.3107
11.406
10.5566
9.74864
8.97122
8.21585
7.47617
6.74748
6.02641
5.31052
4.59814
3.88807
3.17953
2.47197
1.76505
1.05853
0.352267
39.2134
38.7192
38.1743
37.5725
36.9102
36.1827
35.3818
34.495
33.5054
32.3943
31.1457
29.7541
28.233
26.6155
24.9404
23.2463
21.5698
19.9449
18.4033
16.9714
15.661
14.4691
13.3835
12.3881
11.466
10.6016
9.78145
8.99446
8.23187
7.4869
6.75446
6.03079
5.31316
4.59963
3.88885
3.17986
2.47205
1.765
1.0584
0.352082
38.9955
38.5558
38.0477
37.4689
36.8183
36.0932
35.2877
34.3917
33.3921
32.2748
31.0289
29.6529
28.1595
26.5761
24.9367
23.2769
21.6315
20.0328
18.51
17.0859
15.7723
14.5693
13.4685
12.4567
11.5191
10.6413
9.81013
9.01457
8.24555
7.49591
6.76018
6.03426
5.31515
4.60067
3.8893
3.17998
2.47199
1.76486
1.05825
0.351932
38.7899
38.4075
37.9381
37.3839
36.7468
36.0265
35.2194
34.3178
33.3114
32.1899
30.9461
29.5812
28.1075
26.5485
24.9349
23.2997
21.6766
20.0964
18.5865
17.1678
15.8519
14.6408
13.5287
12.5048
11.5559
10.6682
9.82912
9.02746
8.25393
7.50111
6.7632
6.03586
5.31584
4.60083
3.88917
3.17971
2.47169
1.76459
1.05805
0.351838
38.6215
38.2942
37.8621
37.3318
36.7087
35.9952
35.1896
34.2862
33.2766
32.1526
30.9095
29.5497
28.0854
26.5381
24.9367
23.313
21.6998
20.1278
18.6231
17.2058
15.8877
14.6716
13.5533
12.5231
11.5684
10.6762
9.83362
9.02953
8.25441
7.50064
6.76224
6.03469
5.31466
4.59974
3.88822
3.17892
2.47106
1.76412
1.05778
0.351795
38.5143
38.2352
37.8357
37.326
36.7156
36.0098
35.2087
34.3074
33.2982
32.1735
30.929
29.5674
28.1009
26.5507
24.9454
23.317
21.6989
20.1221
18.6131
17.1922
15.8711
14.6532
13.534
12.504
11.5506
10.6601
9.81969
9.01782
8.24483
7.49297
6.75623
6.03006
5.31115
4.59711
3.88627
3.17749
2.47002
1.76339
1.05734
0.351749
38.4818
38.2493
37.8755
37.3796
36.7779
36.0793
35.285
34.3901
33.3858
32.2626
31.0148
29.6442
28.1629
26.5933
24.9656
23.3137
21.673
20.0763
18.5518
17.1207
15.7951
14.578
13.4638
12.4415
11.4971
10.6159
9.78421
8.99004
8.22355
7.47698
6.74442
6.02149
5.30501
4.59277
3.88323
3.17537
2.46852
1.76231
1.05659
0.351478
38.6495
38.3764
37.9748
37.462
36.8521
36.1523
35.362
34.4741
33.4769
32.3577
31.1077
29.7268
28.2273
26.6336
24.9786
23.2993
21.633
20.0147
18.4745
17.0348
15.7082
14.4964
13.3918
12.3812
11.4488
10.5787
9.75649
8.96999
8.20944
7.46731
6.73797
6.0173
5.30238
4.59117
3.8823
3.17485
2.46823
1.76212
1.05642
0.351318
38.6833
38.3538
37.9214
37.391
36.7692
36.0589
35.2581
34.3601
33.3549
32.2325
30.9863
29.6178
28.1391
26.5731
24.9502
23.3044
21.6703
20.0803
18.5621
17.1367
15.8159
14.6022
13.4899
12.4679
11.5224
10.6391
9.80462
9.00744
8.23797
7.48864
6.75365
6.02865
5.31048
4.59689
3.88629
3.17763
2.47019
1.76353
1.05741
0.351707
38.7888
38.4064
37.9371
37.3828
36.7456
36.0253
35.218
34.3163
33.3097
32.1881
30.9443
29.5795
28.106
26.5472
24.9339
23.2991
21.6763
20.0964
18.5868
17.1682
15.8523
14.6413
13.5292
12.5052
11.5562
10.6685
9.82939
9.02768
8.25411
7.50125
6.76331
6.03594
5.31591