# vtk DataFile Version 2.0
I need something to put here
ASCII

DATASET STRUCTURED_GRID
DIMENSIONS 41 11 21
POINTS 9471 float
0.000000 1.000000 0.000000
0.100000 1.000000 0.000000
0.200000 1.000000 0.000000
0.300000 1.000000 0.000000
0.400000 1.000000 0.000000
0.500000 1.000000 0.000000
0.600000 1.000000 0.000000
0.700000 1.000000 0.000000
0.800000 1.000000 0.000000
0.900000 1.000000 0.000000
1.000000 1.000000 0.000000
1.100000 1.000000 0.000000
1.200000 1.000000 0.000000
1.300000 1.000000 0.000000
1.400000 1.000000 0.000000
1.500000 1.000000 0.000000
1.600000 1.000000 0.000000
1.700000 1.000000 0.000000
1.800000 1.000000 0.000000
1.900000 1.000000 0.000000
2.000000 1.000000 0.000000
2.100000 1.000000 0.000000
2.200000 1.000000 0.000000
2.300000 1.000000 0.000000
2.400000 1.000000 0.000000
2.500000 1.000000 0.000000
2.600000 1.000000 0.000000
2.700000 1.000000 0.000000
2.800000 1.000000 0.000000
2.900000 1.000000 0.000000
3.000000 1.000000 0.000000
3.100000 1.000000 0.000000
3.200000 1.000000 0.000000
3.300000 1.000000 0.000000
3.400000 1.000000 0.000000
3.500000 1.000000 0.000000
3.600000 1.000000 0.000000
3.700000 1.000000 0.000000
3.800000 1.000000 0.000000
3.900000 1.000000 0.000000
4.000000 1.000000 0.000000
0.000000 1.100000 0.000000
0.100000 1.100000 0.000000
0.200000 1.100000 0.000000
0.300000 1.100000 0.000000
0.400000 1.100000 0.000000
0.500000 1.100000 0.000000
0.600000 1.100000 0.000000
0.700000 1.100000 0.000000
0.800000 1.100000 0.000000
0.900000 1.100000 0.000000
1.000000 1.100000 0.000000
1.100000 1.100000 0.000000
1.200000 1.100000 0.000000
1.300000 1.100000 0.000000
1.400000 1.100000 0.000000
1.500000 1.100000 0.000000
1.600000 1.100000 0.000000
1.700000 1.100000 0.000000
1.800000 1.100000 0.000000
1.900000 1.100000 0.000000
2.000000 1.100000 0.000000
2.100000 1.100000 0.000000
2.200000 1.100000 0.000000
2.300000 1.100000 0.000000
2.400000 1.100000 0.000000
2.500000 1.100000 0.000000
2.600000 1.100000 0.000000
2.700000 1.100000 0.000000
2.800000 1.100000 0.000000
2.900000 1.100000 0.000000
3.000000 1.100000 0.000000
3.100000 1.100000 0.000000
3.200000 1.100000 0.000000
3.300000 1.100000 0.000000
3.400000 1.100000 0.000000
3.500000 1.100000 0.000000
3.600000 1.100000 0.000000
3.700000 1.100000 0.000000
3.800000 1.100000 0.000000
3.900000 1.100000 0.000000
4.000000 1.100000 0.000000
0.000000 1.200000 0.000000
0.100000 1.200000 0.000000
0.200000 1.200000 0.000000
0.300000 1.200000 0.000000
0.400000 1.200000 0.000000
0.500000 1.200000 0.000000
0.600000 1.200000 0.000000
0.700000 1.200000 0.000000
0.800000 1.200000 0.000000
0.900000 1.200000 0.000000
1.000000 1.200000 0.000000
1.100000 1.200000 0.000000
1.200000 1.200000 0.000000
1.300000 1.200000 0.000000
1.400000 1.200000 0.000000
1.500000 1.200000 0.000000
1.600000 1.200000 0.000000
1.700000 1.200000 0.000000
1.800000 1.200000 0.000000
1.900000 1.200000 0.000000
2.000000 1.200000 0.000000
2.100000 1.200000 0.000000
2.200000 1.200000 0.000000
2.300000 1.200000 0.000000
2.400000 1.200000 0.000000
2.500000 1.200000 0.000000
2.600000 1.200000 0.000000
2.700000 1.200000 0.000000
2.800000 1.200000 0.000000
2.900000 1.200000 0.000000
3.000000 1.200000 0.000000
3.100000 1.200000 0.000000
3.200000 1.200000 0.000000
3.300000 1.200000 0.000000
3.400000 1.200000 0.000000
3.500000 1.200000 0.000000
3.600000 1.200000 0.000000
3.700000 1.200000 0.000000
3.800000 1.200000 0.000000
3.900000 1.200000 0.000000
4.000000 1.200000 0.000000
0.000000 1.300000 0.000000
0.100000 1.300000 0.000000
0.200000 1.300000 0.000000
0.300000 1.300000 0.000000
0.400000 1.300000 0.000000
0.500000 1.300000 0.000000
0.600000 1.300000 0.000000
0.700000 1.300000 0.000000
0.800000 1.300000 0.000000
0.900000 1.300000 0.000000
1.000000 1.300000 0.000000
1.100000 1.300000 0.000000
1.200000 1.300000 0.000000
1.300000 1.300000 0.000000
1.400000 1.300000 0.000000
1.500000 1.300000 0.000000
1.600000 1.300000 0.000000
1.700000 1.300000 0.000000
1.800000 1.300000 0.000000
1.900000 1.300000 0.000000
2.000000 1.300000 0.000000
2.100000 1.300000 0.000000
2.200000 1.300000 0.000000
2.300000 1.300000 0.000000
2.400000 1.300000 0.000000
2.500000 1.300000 0.000000
2.600000 1.300000 0.000000
2.700000 1.300000 0.000000
2.800000 1.300000 0.000000
2.900000 1.300000 0.000000
3.000000 1.300000 0.000000
3.100000 1.300000 0.000000
3.200000 1.300000 0.000000
3.300000 1.300000 0.000000
3.400000 1.300000 0.000000
3.500000 1.300000 0.000000
3.600000 1.300000 0.000000
3.700000 1.300000 0.000000
3.800000 1.300000 0.000000
3.900000 1.300000 0.000000
4.000000 1.300000 0.000000
0.000000 1.400000 0.000000
0.100000 1.400000 0.000000
0.200000 1.400000 0.000000
0.300000 1.400000 0.000000
0.400000 1.400000 0.000000
0.500000 1.400000 0.000000
0.600000 1.400000 0.000000
0.700000 1.400000 0.000000
0.800000 1.400000 0.000000
0.900000 1.400000 0.000000
1.000000 1.400000 0.000000
1.100000 1.400000 0.000000
1.200000 1.400000 0.000000
1.300000 1.400000 0.000000
1.400000 1.400000 0.000000
1.500000 1.400000 0.000000
1.600000 1.400000 0.000000
1.700000 1.400000 0.000000
1.800000 1.400000 0.000000
1.900000 1.400000 0.000000
2.000000 1.400000 0.000000
2.100000 1.400000 0.000000
2.200000 1.400000 0.000000
2.300000 1.400000 0.000000
2.400000 1.400000 0.000000
2.500000 1.400000 0.000000
2.600000 1.400000 0.000000
2.700000 1.400000 0.000000
2.800000 1.400000 0.000000
2.900000 1.400000 0.000000
3.000000 1.400000 0.000000
3.100000 1.400000 0.000000
3.200000 1.400000 0.000000
3.300000 1.400000 0.000000
3.400000 1.400000 0.000000
3.500000 1.400000 0.000000
3.600000 1.400000 0.000000
3.700000 1.400000 0.000000
3.800000 1.400000 0.000000
3.900000 1.400000 0.000000
4.000000 1.400000 0.000000
0.000000 1.500000 0.000000
0.100000 1.500000 0.000000
0.200000 1.500000 0.000000
0.300000 1.500000 0.000000
0.400000 1.500000 0.000000
0.500000 1.500000 0.000000
0.600000 1.500000 0.000000
0.700000 1.500000 0.000000
0.800000 1.500000 0.000000
0.900000 1.500000 0.000000
1.000000 1.500000 0.000000
1.100000 1.500000 0.000000
1.200000 1.500000 0.000000
1.300000 1.500000 0.000000
1.400000 1.500000 0.000000
1.500000 1.500000 0.000000
1.600000 1.500000 0.000000
1.700000 1.500000 0.000000
1.800000 1.500000 0.000000
1.900000 1.500000 0.000000
2.000000 1.500000 0.000000
2.100000 1.500000 0.000000
2.200000 1.500000 0.000000
2.300000 1.500000 0.000000
2.400000 1.500000 0.000000
2.500000 1.500000 0.000000
2.600000 1.500000 0.000000
2.700000 1.500000 0.000000
2.800000 1.500000 0.000000
2.900000 1.500000 0.000000
3.000000 1.500000 0.000000
3.100000 1.500000 0.000000
3.200000 1.500000 0.000000
3.300000 1.500000 0.000000
3.400000 1.500000 0.000000
3.500000 1.500000 0.000000
3.600000 1.500000 0.000000
3.700000 1.500000 0.000000
3.800000 1.500000 0.000000
3.900000 1.500000 0.000000
4.000000 1.500000 0.000000
0.000000 1.600000 0.000000
0.100000 1.600000 0.000000
0.200000 1.600000 0.000000
0.300000 1.600000 0.000000
0.400000 1.600000 0.000000
0.500000 1.600000 0.000000
0.600000 1.600000 0.000000
0.700000 1.600000 0.000000
0.800000 1.600000 0.000000
0.900000 1.600000 0.000000
1.000000 1.600000 0.000000
1.100000 1.600000 0.000000
1.200000 1.600000 0.000000
1.300000 1.600000 0.000000
1.400000 1.600000 0.000000
1.500000 1.600000 0.000000
1.600000 1.600000 0.000000
1.700000 1.600000 0.000000
1.800000 1.600000 0.000000
1.900000 1.600000 0.000000
2.000000 1.600000 0.000000
2.100000 1.600000 0.000000
2.200000 1.600000 0.000000
2.300000 1.600000 0.000000
2.400000 1.600000 0.000000
2.500000 1.600000 0.000000
2.600000 1.600000 0.000000
2.700000 1.600000 0.000000
2.800000 1.600000 0.000000
2.900000 1.600000 0.000000
3.000000 1.600000 0.000000
3.100000 1.600000 0.000000
3.200000 1.600000 0.000000
3.300000 1.600000 0.000000
3.400000 1.600000 0.000000
3.500000 1.600000 0.000000
3.600000 1.600000 0.000000
3.700000 1.600000 0.000000
3.800000 1.600000 0.000000
3.900000 1.600000 0.000000
4.000000 1.600000 0.000000
0.000000 1.700000 0.000000
0.100000 1.700000 0.000000
0.200000 1.700000 0.000000
0.300000 1.700000 0.000000
0.400000 1.700000 0.000000
0.500000 1.700000 0.000000
0.600000 1.700000 0.000000
0.700000 1.700000 0.000000
0.800000 1.700000 0.000000
0.900000 1.700000 0.000000
1.000000 1.700000 0.000000
1.100000 1.700000 0.000000
1.200000 1.700000 0.000000
1.300000 1.700000 0.000000
1.400000 1.700000 0.000000
1.500000 1.700000 0.000000
1.600000 1.700000 0.000000
1.700000 1.700000 0.000000
1.800000 1.700000 0.000000
1.900000 1.700000 0.000000
2.000000 1.700000 0.000000
2.100000 1.700000 0.000000
2.200000 1.700000 0.000000
2.300000 1.700000 0.000000
2.400000 1.700000 0.000000
2.500000 1.700000 0.000000
2.600000 1.700000 0.000000
2.700000 1.700000 0.000000
2.800000 1.700000 0.000000
2.900000 1.700000 0.000000
3.000000 1.700000 0.000000
3.100000 1.700000 0.000000
3.200000 1.700000 0.000000
3.300000 1.700000 0.000000
3.400000 1.700000 0.000000
3.500000 1.700000 0.000000
3.600000 1.700000 0.000000
3.700000 1.700000 0.000000
3.800000 1.700000 0.000000
3.900000 1.700000 0.000000
4.000000 1.700000 0.000000
0.000000 1.800000 0.000000
0.100000 1.800000 0.000000
0.200000 1.800000 0.000000
0.300000 1.800000 0.000000
0.400000 1.800000 0.000000
0.500000 1.800000 0.000000
0.600000 1.800000 0.000000
0.700000 1.800000 0.000000
0.800000 1.800000 0.000000
0.900000 1.800000 0.000000
1.000000 1.800000 0.000000
1.100000 1.800000 0.000000
1.200000 1.800000 0.000000
1.300000 1.800000 0.000000
1.400000 1.800000 0.000000
1.500000 1.800000 0.000000
1.600000 1.800000 0.000000
1.700000 1.800000 0.000000
1.800000 1.800000 0.000000
1.900000 1.800000 0.000000
2.000000 1.800000 0.000000
2.100000 1.800000 0.000000
2.200000 1.800000 0.000000
2.300000 1.800000 0.000000
2.400000 1.800000 0.000000
2.500000 1.800000 0.000000
2.600000 1.800000 0.000000
2.700000 1.800000 0.000000
2.800000 1.800000 0.000000
2.900000 1.800000 0.000000
3.000000 1.800000 0.000000
3.100000 1.800000 0.000000
3.200000 1.800000 0.000000
3.300000 1.800000 0.000000
3.400000 1.800000 0.000000
3.500000 1.800000 0.000000
3.600000 1.800000 0.000000
[...]
CELL_DATA 8000
SCALARS pressure float 1
LOOKUP_TABLE default
-34.8881
-26.4409
-22.733
-20.9338
-19.9133
-19.2172
-18.6521
-18.1267
-17.5911
-17.0121
-16.3678
-15.6483
-14.8578
-14.0129
-13.1352
-12.2454
-11.3646
-10.516
-9.72366
-9.00663
-8.37074
-7.80836
-7.30407
-6.84078
-6.40371
-5.98181
-5.56771
-5.15693
-4.74706
-4.33693
-3.92609
-3.51448
-3.10217
-2.68931
-2.27604
-1.86246
-1.44867
-1.03475
-0.620772
-0.206841
-34.5741
-26.2966
-22.6614
-20.8944
-19.8883
-19.1979
-18.6342
-18.108
-17.5707
-16.9905
-16.3465
-15.6292
-14.8428
-14.0037
-13.1326
-12.2497
-11.3758
-10.5331
-9.74523
-9.03037
-8.39426
-7.82976
-7.32223
-6.85536
-6.41487
-5.99002
-5.57354
-5.16095
-4.74975
-4.33868
-3.9272
-3.51515
-3.10256
-2.68952
-2.27614
-1.8625
-1.44868
-1.03474
-0.620763
-0.206832
-33.9491
-26.0106
-22.5202
-20.8169
-19.8389
-19.1596
-18.5983
-18.0702
-17.5294
-16.9467
-16.3029
-15.59
-14.812
-13.9841
-13.1258
-12.2563
-11.3957
-10.5651
-9.78624
-9.07593
-8.43961
-7.87116
-7.35749
-6.88376
-6.43673
-6.00622
-5.58516
-5.16907
-4.75528
-4.34236
-3.9296
-3.51668
-3.10352
-2.6901
-2.27648
-1.86269
-1.44878
-1.03479
-0.620775
-0.206824
-33.0252
-25.5942
-22.3195
-20.7102
-19.773
-19.1095
-18.5515
-18.0206
-17.4749
-16.8884
-16.2448
-15.5375
-14.7707
-13.9577
-13.1163
-12.2648
-11.422
-10.6074
-9.84064
-9.13641
-8.49986
-7.9262
-7.40443
-6.92162
-6.46592
-6.0279
-5.60077
-5.18001
-4.76277
-4.34738
-3.9329
-3.51881
-3.10486
-2.69094
-2.27698
-1.86298
-1.44894
-1.03487
-0.620803
-0.206818
-31.8221
-25.0655
-22.0749
-20.5874
-19.7019
-19.0577
-18.5035
-17.969
-17.4173
-16.8262
-16.1823
-15.4808
-14.7258
-13.9291
-13.1063
-12.2745
-11.4511
-10.6541
-9.90037
-9.20275
-8.56597
-7.98668
-7.45608
-6.96336
-6.49815
-6.05187
-5.61805
-5.19213
-4.77108
-4.35296
-3.93658
-3.52119
-3.10637
-2.69188
-2.27756
-1.86332
-1.44913
-1.03497
-0.620842
-0.206818
-30.3704
-24.4521
-21.8094
-20.4668
-19.64
-19.0164
-18.465
-17.9257
-17.3669
-16.7704
-16.1254
-15.4288
-14.6845
-13.9028
-13.0976
-12.2844
-11.4795
-10.6988
-9.95734
-9.26588
-8.62891
-8.04435
-7.50545
-7.00333
-6.52906
-6.07489
-5.63464
-5.20377
-4.77906
-4.35832
-3.94011
-3.52348
-3.10783
-2.69279
-2.27811
-1.86366
-1.44932
-1.03507
-0.62089
-0.206827
-28.7194
-23.7966
-21.5552
-20.3715
-19.6038
-18.9975
-18.4458
-17.8994
-17.3322
-16.7292
-16.082
-15.3884
-14.6522
-13.8824
-13.0915
-12.2937
-11.5039
-10.7367
-10.0051
-9.31863
-8.68149
-8.09259
-7.54681
-7.03686
-6.55502
-6.09421
-5.64857
-5.21353
-4.78574
-4.3628
-3.94306
-3.52539
-3.10905
-2.69355
-2.27858
-1.86393
-1.44949
-1.03516
-0.620942
-0.206847
-26.9582
-23.1676
-21.3571
-20.3281
-19.6087
-19.0103
-18.4521
-17.8951
-17.3176
-16.7069
-16.0559
-15.3629
-14.6315
-13.8696
-13.0885
-12.3014
-11.5222
-10.7644
-10.0396
-9.35654
-8.7192
-8.12718
-7.57646
-7.06089
-6.5736
-6.10803
-5.6585
-5.22048
-4.79049
-4.36598
-3.94514
-3.52673
-3.1099
-2.69408
-2.27891
-1.86413
-1.4496
-1.03524
-0.620992
-0.206878
-25.2702
-22.6796
-21.271
-20.3589
-19.6608
-19.0546
-18.4817
-17.9104
-17.3215
-16.7026
-16.0469
-15.3525
-14.6225
-13.8642
-13.0881
-12.3066
-11.533
-10.7801
-10.0589
-9.37755
-8.73997
-8.14614
-7.59264
-7.07394
-6.58363
-6.11543
-5.66379
-5.22415
-4.79297
-4.36763
-3.94622
-3.52742
-3.11034
-2.69435
-2.27907
-1.86423
-1.44966
-1.03528
-0.621029
-0.206913
-24.0874
-22.5062
-21.3336
-20.4509
-19.7358
-19.1077
-18.5172
-17.9333
-17.3355
-16.7108
-16.0513
-15.3548
-14.6237
-13.8651
-13.0891
-12.3081
-11.5351
-10.7827
-10.0619
-9.38057
-8.74278
-8.14852
-7.59449
-7.07526
-6.58451
-6.11597
-5.66409
-5.2243
-4.79303
-4.36764
-3.9462
-3.5274
-3.11032
-2.69433
-2.27905
-1.86421
-1.44965
-1.03528
-0.621034
-0.20693
-28.0922
-25.1503
-22.7869
-21.2058
-20.1362
-19.3502
-18.7065
-18.1213
-17.5436
-16.9387
-16.2842
-15.5684
-14.7928
-13.971
-13.121
-12.2608
-11.4096
-10.5873
-9.81486
-9.10863
-8.47345
-7.90311
-7.38531
-6.90635
-6.45406
-6.01892
-5.59416
-5.17529
-4.75953
-4.34526
-3.9316
-3.51808
-3.10451
-2.69082
-2.277
-1.86308
-1.44908
-1.03504
-0.620978
-0.206955
-27.9137
-25.0321
-22.7151
-21.1621
-20.108
-19.3298
-18.6893
-18.1049
-17.5265
-16.9211
-16.2669
-15.553
-14.7809
-13.9637
-13.1191
-12.2647
-11.419
-10.6016
-9.83267
-9.12814
-8.49272
-7.92065
-7.40026
-6.91843
-6.46339
-6.02586
-5.59915
-5.17877
-4.76189
-4.34682
-3.93258
-3.51868
-3.10486
-2.69101
-2.2771
-1.86312
-1.44909
-1.03503
-0.620968
-0.206943
-27.5597
-24.7984
-22.5734
-21.076
-20.0524
-19.2893
-18.6548
-18.0713
-17.4916
-16.885
-16.2313
-15.5211
-14.7559
-13.948
-13.1138
-12.2705
-11.4357
-10.628
-9.86643
-9.16551
-8.52986
-7.95461
-7.42932
-6.94202
-6.48173
-6.03961
-5.60915
-5.18585
-4.76678
-4.35011
-3.93476
-3.52008
-3.10574
-2.69155
-2.27742
-1.8633
-1.44919
-1.03507
-0.620977
-0.206929
-27.0426
-24.4605
-22.3718
-20.9561
-19.9767
-19.2351
-18.6091
-18.027
-17.4455
-16.8369
-16.1839
-15.4783
-14.7223
-13.9266
-13.1064
-12.2777
-11.4574
-10.6628
-9.91102
-9.21494
-8.57904
-7.99961
-7.46789
-6.97338
-6.50617
-6.05798
-5.62254
-5.19535
-4.77337
-4.35459
-3.93773
-3.52202
-3.10698
-2.69232
-2.27789
-1.86358
-1.44934
-1.03515
-0.620999
-0.206914
-26.382
-24.0365
-22.1259
-20.8153
-19.8917
-19.1768
-18.5611
-17.9804
-17.3967
-16.7858
-16.1331
-15.4325
-14.6861
-13.9036
-13.0984
-12.2857
-11.4811
-10.7007
-9.9595
-9.26868
-8.63256
-8.04867
-7.51001
-7.00769
-6.53292
-6.0781
-5.63721
-5.20577
-4.7806
-4.35949
-3.941
-3.52415
-3.10834
-2.69318
-2.27841
-1.86389
-1.44951
-1.03523
-0.62103
-0.206903
-25.6078
-23.5531
-21.8577
-20.6708
-19.8109
-19.1254
-18.5202
-17.9408
-17.3543
-16.7405
-16.0877
-15.3912
-14.6534
-13.8828
-13.0916
-12.2937
-11.5038
-10.7364
-10.0049
-9.31889
-8.68261
-8.09464
-7.54953
-7.03989
-6.55803
-6.09697
-5.65095
-5.21551
-4.78734
-4.36406
-3.94403
-3.52613
-3.10961
-2.69397
-2.27889
-1.86417
-1.44967
-1.03532
-0.621063
-0.206899
-24.7654
-23.0499
-21.5973
-20.5443
-19.7496
-19.0919
-18.4956
-17.9159
-17.3258
-16.7086
-16.0546
-15.3605
-14.6289
-13.8674
-13.0871
-12.3009
-11.5225
-10.7654
-10.0413
-9.35907
-8.72262
-8.13136
-7.58107
-7.06556
-6.57798
-6.11191
-5.66178
-5.22314
-4.79258
-4.36759
-3.94636
-3.52763
-3.11056
-2.69456
-2.27925
-1.86438
-1.44979
-1.03538
-0.621091
-0.206904
-23.929
-22.5857
-21.3844
-20.4599
-19.722
-19.0851
-18.4931
-17.9108
-17.3159
-16.6944
-16.0381
-15.3443
-14.6158
-13.8594
-13.0855
-12.3064
-11.535
-10.7841
-10.0646
-9.38449
-8.74776
-8.15427
-7.6006
-7.08129
-6.59008
-6.12085
-5.66816
-5.22757
-4.79557
-4.36956
-3.94763
-3.52843
-3.11105
-2.69485
-2.27942
-1.86447
-1.44983
-1.0354
-0.621105
-0.206917
-23.2275
-22.2489
-21.2671
-20.4396
-19.7364
-19.1075
-18.5133
-17.9258
-17.3254
-16.6993
-16.0397
-15.3442
-14.6152
-13.8594
-13.0867
-12.3091
-11.5395
-10.7901
-10.0716
-9.39179
-8.75463
-8.16018
-7.60529
-7.08476
-6.59247
-6.12239
-5.66909
-5.22808
-4.79582
-4.36965
-3.94763
-3.52839
-3.111
-2.69479
-2.27936
-1.86442
-1.44979
-1.03537
-0.621093
-0.20693
-22.8822
-22.1622
-21.2916
-20.4918
-19.7874
-19.1507
-18.5491
-17.956
-17.3516
-16.7223
-16.0596
-15.3607
-14.6277
-13.8675
-13.0902
-12.3079
-11.5339
-10.7807
-10.0594
-9.37786
-8.74022
-8.14634
-7.59281
-7.07408
-6.58375
-6.11553
-5.66388
-5.22422
-4.79303
-4.36767
-3.94625
-3.52745
-3.11036
-2.69437
-2.27908
-1.86424
-1.44967
-1.03529
-0.621035
-0.206914
-24.373
-23.3974
-22.1227
-21.0024
-20.0977
-19.3575
-18.7176
-18.1257
-17.5423
-16.9362
-16.2836
-15.569
-14.7916
-13.9694
-13.1231
-12.268
-11.4201
-10.5976
-9.82348
-9.11993
-8.49056
-7.92548
-7.41016
-6.93067
-6.47571
-6.03687
-5.60826
-5.18591
-4.76728
-4.35077
-3.93544
-3.52072
-3.1063
-2.69203
-2.27782
-1.86364
-1.44946
-1.0353
-0.621152
-0.207038
-24.2672
-23.3138
-22.0642
-20.963
-20.0708
-19.3375
-18.7007
-18.1095
-17.5253
-16.9184
-16.2657
-15.5528
-14.7791
-13.9618
-13.121
-12.2718
-11.4295
-10.6121
-9.84185
-9.13996
-8.51002
-7.94282
-7.42462
-6.94214
-6.48445
-6.0433
-5.61285
-5.1891
-4.76943
-4.35219
-3.93633
-3.52126
-3.10662
-2.6922
-2.2779
-1.86367
-1.44946
-1.03529
-0.621137
-0.207021
-24.0588
-23.1493
-21.949
-20.8855
-20.0173
-19.2974
-18.6665
-18.0762
-17.4904
-16.8815
-16.2286
-15.5191
-14.7529
-13.9456
-13.1153
-12.2771
-11.446
-10.6391
-9.87697
-9.17867
-8.54774
-7.97646
-7.45275
-6.96455
-6.50162
-6.05606
-5.62206
-5.1956
-4.77391
-4.35521
-3.93833
-3.52255
-3.10742
-2.69269
-2.27819
-1.86383
-1.44955
-1.03532
-0.621137
-0.206997
-23.7602
-22.9147
-21.7866
-20.7778
-19.9444
-19.2436
-18.621
-18.0321
-17.4442
-16.8324
-16.179
-15.4739
-14.7178
-13.9236
-13.1073
-12.2836
-11.4672
-10.6744
-9.92336
-9.22978
-8.59746
-8.02078
-7.48984
-6.99412
-6.52433
-6.07295
-5.6343
-5.20425
-4.7799
-4.35926
-3.94102
-3.5243
-3.10854
-2.69339
-2.27861
-1.86407
-1.44968
-1.03538
-0.621148
-0.206969
-23.3908
-22.6272
-21.5916
-20.652
-19.8621
-19.185
-18.5726
-17.9858
-17.3955
-16.7807
-16.1268
-15.4262
-14.6805
-13.9001
-13.0987
-12.2905
-11.4899
-10.7121
-9.97262
-9.2841
-8.65048
-8.06821
-7.52964
-7.02592
-6.54876
-6.09112
-5.64745
-5.21354
-4.78632
-4.36362
-3.94391
-3.52619
-3.10975
-2.69414
-2.27907
-1.86433
-1.44982
-1.03544
-0.621163
-0.206943
-22.9781
-22.311
-21.3838
-20.5239
-19.7831
-19.132
-18.5307
-17.9462
-17.354
-16.7363
-16.0816
-15.3848
-14.6479
-13.8794
-13.0914
-12.2974
-11.5109
-10.7463
-10.0168
-9.33278
-8.69818
-8.11106
-7.56567
-7.05472
-6.57086
-6.10752
-5.65927
-5.22185
-4.79203
-4.36746
-3.94645
-3.52782
-3.11078
-2.69478
-2.27945
-1.86455
-1.44993
-1.0355
-0.621175
-0.206924
-22.5603
-21.9987
-21.1888
-20.4126
-19.7212
-19.0953
-18.5043
-17.9217
-17.3273
-16.7068
-16.051
-15.3563
-14.6252
-13.8651
-13.0869
-12.3032
-11.5273
-10.7721
-10.0497
-9.36891
-8.73356
-8.14279
-7.59228
-7.07586
-6.58694
-6.11932
-5.66767
-5.22767
-4.79597
-4.37006
-3.94813
-3.52889
-3.11144
-2.69517
-2.27967
-1.86467
-1.44999
-1.03552
-0.621176
-0.206915
-22.191
-21.734
-21.038
-20.339
-19.6902
-19.0842
-18.5003
-17.9181
-17.3212
-16.6976
-16.0397
-15.345
-14.6159
-13.8594
-13.0859
-12.3072
-11.5364
-10.786
-10.067
-9.38752
-8.75144
-8.15846
-7.60502
-7.08562
-6.59405
-6.12428
-5.671
-5.22982
-4.79731
-4.37086
-3.94859
-3.52913
-3.11155
-2.6952
-2.27966
-1.86464
-1.44996
-1.03549
-0.621158
-0.206917
-21.9435
-21.5721
-20.9669
-20.3231
-19.7005
-19.1043
-18.5221
-17.9382
-17.3383
-16.7114
-16.0505
-15.3532
-14.6219
-13.8636
-13.0884
-12.3083
-11.5363
-10.7849
-10.0651
-9.38481
-8.74795
-8.15438
-7.60066
-7.08132
-6.5901
-6.12085
-5.66816
-5.22756
-4.79556
-4.36955
-3.94762
-3.52842
-3.11104
-2.69484
-2.27941
-1.86446
-1.44983
-1.0354
-0.621106
-0.206917
-21.895
-21.5748
-21.0111
-20.3807
-19.7574
-19.1563
-18.5694
-17.9819
-17.3792
-16.7495
-16.0849
-15.3824
-14.6444
-13.8781
-13.0941
-12.3051
-11.5246
-10.7659
-10.0407
-9.35727
-8.71971
-8.12755
-7.57674
-7.06111
-6.57377
-6.10816
-5.65861
-5.22057
-4.79056
-4.36603
-3.94518
-3.52676
-3.10992
-2.6941
-2.27892
-1.86414
-1.44961
-1.03524
-0.620999
-0.206879
-22.3338
-22.0289
-21.3599
-20.6172
-19.9163
-19.2799
-18.6946
-18.1371
-17.5816
-17.0014
-16.3682
-15.6549
-14.8541
-14.0056
-13.1417
-12.2698
-11.4008
-10.5491
-9.7456
-9.0372
-8.42224
-7.87797
-7.38149
-6.91584
-6.46971
-6.03586
-5.60966
-5.18821
-4.76967
-4.35289
-3.93716
-3.52205
-3.1073
-2.69276
-2.27835
-1.86402
-1.44974
-1.0355
-0.621293
-0.207122
-22.2663
-21.9714
-21.3159
-20.5851
-19.8926
-19.261
-18.6775
-18.1194
-17.5618
-16.9793
-16.345
-15.6334
-14.8376
-13.9956
-13.1385
-12.2738
-11.4121
-10.567
-9.76893
-9.06271
-8.4464
-7.89866
-7.39804
-6.92846
-6.479
-6.0425
-5.61429
-5.19136
-4.77176
-4.35424
-3.938
-3.52256
-3.10759
-2.69291
-2.27842
-1.86404
-1.44974
-1.03548
-0.621272
-0.207099
-22.1346
-21.8589
-21.2296
-20.5217
-19.8454
-19.223
-18.6427
-18.083
-17.5208
-16.933
-16.2958
-15.5877
-14.8032
-13.9748
-13.1305
-12.2789
-11.4312
-10.6005
-9.8152
-9.11348
-8.49405
-7.93917
-7.43034
-6.95312
-6.49724
-6.05565
-5.62356
-5.19777
-4.77611
-4.35713
-3.93989
-3.52376
-3.10833
-2.69336
-2.27868
-1.86418
-1.4498
-1.0355
-0.621263
-0.207065
-21.9512
-21.7019
-21.1097
-20.4347
-19.7815
-19.1721
-18.5964
-18.0347
-17.4665
-16.8711
-16.2291
-15.5249
-14.7564
-13.947
-13.1193
-12.2847
-11.4551
-10.6448
-9.87778
-9.18139
-8.55705
-7.99237
-7.47266
-6.98542
-6.52114
-6.07289
-5.63575
-5.20622
-4.78186
-4.36097
-3.94241
-3.52538
-3.10935
-2.69399
-2.27905
-1.86439
-1.44991
-1.03554
-0.62126
-0.207024
-21.7348
-21.5162
-20.9696
-20.335
-19.7102
-19.117
-18.5473
-17.9843
-17.4099
-16.807
-16.1605
-15.4605
-14.7075
-13.9171
-13.1073
-12.2909
-11.4806
-10.6912
-9.94195
-9.25134
-8.62252
-8.04809
-7.5172
-7.0195
-6.54637
-6.09108
-5.64857
-5.21508
-4.78787
-4.36498
-3.94503
-3.52706
-3.11041
-2.69463
-2.27943
-1.8646
-1.45001
-1.03558
-0.621256
-0.206983
-21.5105
-21.3227
-20.8263
-20.2367
-19.6433
-19.068
-18.5054
-17.9419
-17.3625
-16.7534
-16.1037
-15.4072
-14.666
-13.8912
-13.0972
-12.2969
-11.5036
-10.7315
-9.99622
-9.31072
-8.67878
-8.09645
-7.55607
-7.04926
-6.56833
-6.10683
-5.65958
-5.22261
-4.79291
-4.36829
-3.94716
-3.5284
-3.11124
-2.69512
-2.27971
-1.86475
-1.45008
-1.0356
-0.621246
-0.206948
-21.3092
-21.1471
-20.7005
-20.1558
-19.5933
-19.0354
-18.4799
-17.9167
-17.3336
-16.7198
-16.0673
-15.3727
-14.6387
-13.874
-13.0908
-12.3018
-11.5204
-10.7599
-10.0337
-9.35157
-8.71758
-8.12978
-7.58269
-7.06937
-6.58289
-6.11701
-5.66649
-5.22718
-4.79586
-4.37015
-3.9483
-3.52908
-3.11161
-2.69532
-2.2798
-1.86477
-1.45007
-1.03558
-0.62122
-0.206926
-21.1665
-21.0182
-20.6146
-20.1089
-19.5725
-19.0285
-18.4786
-17.9153
-17.3294
-16.7118
-16.0565
-15.3614
-14.6293
-13.8682
-13.0892
-12.3048
-11.5283
-10.7727
-10.0501
-9.36903
-8.73355
-8.14271
-7.59215
-7.07571
-6.58679
-6.11918
-5.66754
-5.22756
-4.79587
-4.36998
-3.94806
-3.52883
-3.11139
-2.69513
-2.27964
-1.86464
-1.44997
-1.0355
-0.621171
-0.206914
-21.1162
-20.9647
-20.5908
-20.1117
-19.5911
-19.0544
-18.5065
-17.9424
-17.354
-16.7332
-16.0743
-15.3755
-14.64
-13.8753
-13.0926
-12.3046
-11.5249
-10.7668
-10.0422
-9.35954
-8.72283
-8.1314
-7.58102
-7.06545
-6.57786
-6.11178
-5.66166
-5.22303
-4.79248
-4.3675
-3.94628
-3.52757
-3.1105
-2.69451
-2.27921
-1.86435
-1.44976
-1.03536
-0.621086
-0.206902
-21.1615
-21.006
-20.6483
-20.1771
-19.6568
-19.1174
-18.5665
-18.0001
-17.4097
-16.7861
-16.1226
-15.4168
-14.6718
-13.8957
-13.1004
-12.2996
-11.5077
-10.7391
-10.0067
-9.3196
-8.68209
-8.09296
-7.54703
-7.03699
-6.55509
-6.09424
-5.64858
-5.21354
-4.78574
-4.36279
-3.94304
-3.52537
-3.10903
-2.69353
-2.27856
-1.86392
-1.44948
-1.03516
-0.620945
-0.206848
-21.1787
-21.0859
-20.7163
-20.2214
-19.692
-19.1681
-18.6603
-18.1644
-17.6673
-17.1464
-16.5627
-15.8569
-14.9869
-14.0723
-13.1764
-12.2694
-11.3576
-10.4386
-9.55093
-8.83494
-8.25676
-7.75864
-7.3018
-6.86539
-6.43911
-6.01801
-5.59968
-5.18291
-4.76703
-4.35172
-3.93676
-3.52203
-3.10744
-2.69295
-2.27855
-1.8642
-1.4499
-1.03563
-0.6214
-0.207211
-21.1315
-21.0455
-20.6839
-20.1962
-19.6718
-19.1503
-18.6422
-18.1435
-17.6416
-17.1154
-16.5284
-15.825
-14.9632
-14.0582
-13.1708
-12.2736
-11.3729
-10.462
-9.58411
-8.87194
-8.29088
-7.78656
-7.32304
-6.88083
-6.45001
-6.02552
-5.60476
-5.18626
-4.76921
-4.35309
-3.9376
-3.52252
-3.10771
-2.69309
-2.2786
-1.86421
-1.44988
-1.0356
-0.621374
-0.207185
-21.0403
-20.9669
-20.6205
-20.1463
-19.6315
-19.1143
-18.6051
-18.1002
-17.5877
-17.0488
-16.4524
-15.7525
-14.9125
-14.0299
-13.1585
-12.2787
-11.3972
-10.5087
-9.65625
-8.95036
-8.36061
-7.8422
-7.36482
-6.91107
-6.47136
-6.04033
-5.61486
-5.19305
-4.7737
-4.35602
-3.93947
-3.52368
-3.10842
-2.6935
-2.27883
-1.86432
-1.44993
-1.03561
-0.621356
-0.207142
-20.9178
-20.8601
-20.5342
-20.0789
-19.5773
-19.0663
-18.5559
-18.0427
-17.5156
-16.9577
-16.3442
-15.6439
-14.8409
-13.9934
-13.1415
-12.283
-11.425
-10.5726
-9.76254
-9.06033
-8.45467
-7.91571
-7.41949
-6.9505
-6.49918
-6.05961
-5.62802
-5.2019
-4.77957
-4.35985
-3.94193
-3.52523
-3.10937
-2.69408
-2.27916
-1.8645
-1.45001
-1.03564
-0.621339
-0.207089
-20.7822
-20.7399
-20.4372
-20.004
-19.5184
-19.0153
-18.5046
-17.9833
-17.4417
-16.8655
-16.2372
-15.5389
-14.767
-13.9527
-13.1236
-12.2881
-11.4559
-10.639
-9.86486
-9.16864
-8.54961
-7.99113
-7.47613
-6.99153
-6.52814
-6.07965
-5.64164
-5.21102
-4.78558
-4.36375
-3.94441
-3.52678
-3.11032
-2.69464
-2.27948
-1.86467
-1.45008
-1.03565
-0.621317
-0.207033
-20.6561
-20.624
-20.3438
-19.9338
-19.4655
-18.9715
-18.4618
-17.9343
-17.3811
-16.7912
-16.153
-15.4575
-14.7062
-13.9167
-13.1083
-12.2934
-11.484
-10.6944
-9.94476
-9.25479
-8.62745
-8.05439
-7.52421
-7.02646
-6.5527
-6.09647
-5.65292
-5.21844
-4.79037
-4.36678
-3.94629
-3.52792
-3.11099
-2.69501
-2.27967
-1.86475
-1.45011
-1.03564
-0.621284
-0.206983
-20.5643
-20.5322
-20.2702
-19.8816
-19.4299
-18.9452
-18.4375
-17.906
-17.3448
-16.7457
-16.1012
-15.4073
-14.6671
-13.8926
-13.0983
-12.2977
-11.504
-10.7317
-9.99617
-9.31052
-8.67848
-8.0961
-7.5557
-7.0489
-6.56799
-6.10652
-5.65931
-5.22238
-4.79272
-4.36813
-3.94703
-3.52829
-3.11114
-2.69505
-2.27965
-1.8647
-1.45005
-1.03558
-0.621234
-0.206945
-20.5294
-20.4822
-20.2313
-19.86
-19.4221
-18.9452
-18.4398
-17.9062
-17.3399
-16.7348
-16.0855
-15.3905
-14.6535
-13.8841
-13.0951
-12.2999
-11.5125
-10.7471
-10.0171
-9.33273
-8.6979
-8.11063
-7.56518
-7.05422
-6.57038
-6.10708
-5.65888
-5.22151
-4.79174
-4.36721
-3.94624
-3.52765
-3.11064
-2.69466
-2.27936
-1.86448
-1.44988
-1.03546
-0.621158
-0.206919
-20.5612
-20.485
-20.2389
-19.8794
-19.4506
-18.9786
-18.4746
-17.94
-17.3709
-16.7617
-16.1079
-15.4082
-14.6669
-13.8929
-13.0988
-12.2986
-11.5069
-10.7382
-10.0058
-9.31923
-8.68257
-8.09436
-7.54913
-7.03944
-6.55758
-6.09655
-5.65057
-5.21518
-4.78705
-4.36381
-3.94382
-3.52595
-3.10946
-2.69385
-2.2788
-1.8641
-1.44962
-1.03528
-0.621047
-0.206894
-20.6296
-20.5368
-20.2998
-19.9479
-19.522
-19.0502
-18.5456
-18.0106
-17.4408
-16.8292
-16.1702
-15.4617
-14.7081
-13.9193
-13.1088
-12.2918
-11.4842
-10.7017
-9.95901
-9.26675
-8.62928
-8.04442
-7.50534
-7.00313
-6.52883
-6.07464
-5.63441
-5.20357
-4.77888
-4.35816
-3.93997
-3.52336
-3.10773
-2.6927
-2.27804
-1.8636
-1.44928
-1.03505
-0.620882
-0.206825
-20.5064
-20.4648
-20.2344
-19.888
-19.4843
-19.0598
-18.6346
-18.2173
-17.8081
-17.3932
-16.9223
-16.2623
-15.1903
-14.1357
-13.2288
-12.2709
-11.3112
-10.2741
-9.14937
-8.45487
-7.97364
-7.56641
-7.17674
-6.78595
-6.3895
-5.98748
-5.58116
-5.17184
-4.76054
-4.34798
-3.93466
-3.52089
-3.10685
-2.69267
-2.27844
-1.86418
-1.44993
-1.03568
-0.621473
-0.207306
-20.4697
-20.4348
-20.2101
-19.8681
-19.4669
-19.0426
-18.6145
-18.1913
-17.7732
-17.3483
-16.8714
-16.217
-15.1589
-14.117
-13.2187
-12.2742
-11.3331
-10.3002
-9.19554
-8.51006
-8.02368
-7.6056
-7.20515
-6.80568
-6.40287
-5.99637
-5.58698
-5.17559
-4.76291
-4.34944
-3.93553
-3.52138
-3.10711
-2.6928
-2.27848
-1.86418
-1.4499
-1.03566
-0.621444
-0.207275
-20.3997
-20.3767
-20.1624
-19.8286
-19.4318
-19.0072
-18.5731
-18.137
-17.6984
-17.2467
-16.7459
-16.0946
-15.0857
-14.0819
-13.1994
-12.2795
-11.3656
-10.3636
-9.31792
-8.64097
-8.13204
-7.68593
-7.2617
-6.84447
-6.42905
-6.01384
-5.59852
-5.18312
-4.76776
-4.35253
-3.93746
-3.52256
-3.10781
-2.6932
-2.2787
-1.86428
-1.44994
-1.03565
-0.621418
-0.207225
-20.309
-20.3003
-20.0993
-19.7761
-19.3853
-18.9605
-18.5183
-18.0645
-17.5963
-17.1009
-16.5459
-15.8637
-14.9739
-14.0492
-13.1717
-12.2804
-11.3863
-10.4569
-9.54514
-8.84576
-8.2851
-7.79389
-7.33609
-6.89504
-6.46306
-6.0365
-5.61346
-5.19287
-4.77405
-4.35654
-3.93997
-3.5241
-3.10874
-2.69374
-2.27899
-1.86443
-1.45
-1.03566
-0.621389
-0.207161
-20.2155
-20.2191
-20.0315
-19.72
-19.3363
-18.9119
-18.4618
-17.9904
-17.4934
-16.9586
-16.3622
-15.6691
-14.8578
-14.0006
-13.1454
-12.2832
-11.4202
-10.5572
-9.73428
-9.03221
-8.43357
-7.90235
-7.41217
-6.94717
-6.4982
-6.05985
-5.62878
-5.20279
-4.78039
-4.36053
-3.94244
-3.5256
-3.10962
-2.69424
-2.27926
-1.86456
-1.45005
-1.03566
-0.621351
-0.207092
-20.1399
-20.1489
-19.9717
-19.6711
-19.295
-18.872
-18.4159
-17.9302
-17.4111
-16.8488
-16.2287
-15.535
-14.7655
-13.9522
-13.1233
-12.2876
-11.4552
-10.6384
-9.8642
-9.16796
-8.54891
-7.99044
-7.47547
-6.99091
-6.52759
-6.07917
-5.64123