# vtk DataFile Version 2.0
I need something to put here
ASCII

DATASET STRUCTURED_GRID
DIMENSIONS 15 11 21
POINTS 3465 float
0.000000 1.000000 0.000000
0.100000 1.000000 0.000000
0.200000 1.000000 0.000000
0.300000 1.000000 0.000000
0.400000 1.000000 0.000000
0.500000 1.000000 0.000000
0.600000 1.000000 0.000000
0.700000 1.000000 0.000000
0.800000 1.000000 0.000000
0.900000 1.000000 0.000000
1.000000 1.000000 0.000000
1.100000 1.000000 0.000000
1.200000 1.000000 0.000000
1.300000 1.000000 0.000000
1.400000 1.000000 0.000000
0.000000 1.100000 0.000000
0.100000 1.100000 0.000000
0.200000 1.100000 0.000000
0.300000 1.100000 0.000000
0.400000 1.100000 0.000000
0.500000 1.100000 0.000000
0.600000 1.100000 0.000000
0.700000 1.100000 0.000000
0.800000 1.100000 0.000000
0.900000 1.100000 0.000000
1.000000 1.100000 0.000000
1.100000 1.100000 0.000000
1.200000 1.100000 0.000000
1.300000 1.100000 0.000000
1.400000 1.100000 0.000000
0.000000 1.200000 0.000000
0.100000 1.200000 0.000000
0.200000 1.200000 0.000000
0.300000 1.200000 0.000000
0.400000 1.200000 0.000000
0.500000 1.200000 0.000000
0.600000 1.200000 0.000000
0.700000 1.200000 0.000000
0.800000 1.200000 0.000000
0.900000 1.200000 0.000000
1.000000 1.200000 0.000000
1.100000 1.200000 0.000000
1.200000 1.200000 0.000000
1.300000 1.200000 0.000000
1.400000 1.200000 0.000000
0.000000 1.300000 0.000000
0.100000 1.300000 0.000000
0.200000 1.300000 0.000000
0.300000 1.300000 0.000000
0.400000 1.300000 0.000000
0.500000 1.300000 0.000000
0.600000 1.300000 0.000000
0.700000 1.300000 0.000000
0.800000 1.300000 0.000000
0.900000 1.300000 0.000000
1.000000 1.300000 0.000000
1.100000 1.300000 0.000000
1.200000 1.300000 0.000000
1.300000 1.300000 0.000000
1.400000 1.300000 0.000000
0.000000 1.400000 0.000000
0.100000 1.400000 0.000000
0.200000 1.400000 0.000000
0.300000 1.400000 0.000000
0.400000 1.400000 0.000000
0.500000 1.400000 0.000000
0.600000 1.400000 0.000000
0.700000 1.400000 0.000000
0.800000 1.400000 0.000000
0.900000 1.400000 0.000000
1.000000 1.400000 0.000000
1.100000 1.400000 0.000000
1.200000 1.400000 0.000000
1.300000 1.400000 0.000000
1.400000 1.400000 0.000000
0.000000 1.500000 0.000000
0.100000 1.500000 0.000000
0.200000 1.500000 0.000000
0.300000 1.500000 0.000000
0.400000 1.500000 0.000000
0.500000 1.500000 0.000000
0.600000 1.500000 0.000000
0.700000 1.500000 0.000000
0.800000 1.500000 0.000000
0.900000 1.500000 0.000000
1.000000 1.500000 0.000000
1.100000 1.500000 0.000000
1.200000 1.500000 0.000000
1.300000 1.500000 0.000000
1.400000 1.500000 0.000000
0.000000 1.600000 0.000000
0.100000 1.600000 0.000000
0.200000 1.600000 0.000000
0.300000 1.600000 0.000000
0.400000 1.600000 0.000000
0.500000 1.600000 0.000000
0.600000 1.600000 0.000000
0.700000 1.600000 0.000000
0.800000 1.600000 0.000000
0.900000 1.600000 0.000000
1.000000 1.600000 0.000000
1.100000 1.600000 0.000000
1.200000 1.600000 0.000000
1.300000 1.600000 0.000000
1.400000 1.600000 0.000000
0.000000 1.700000 0.000000
0.100000 1.700000 0.000000
0.200000 1.700000 0.000000
0.300000 1.700000 0.000000
0.400000 1.700000 0.000000
0.500000 1.700000 0.000000
0.600000 1.700000 0.000000
0.700000 1.700000 0.000000
0.800000 1.700000 0.000000
0.900000 1.700000 0.000000
1.000000 1.700000 0.000000
1.100000 1.700000 0.000000
1.200000 1.700000 0.000000
1.300000 1.700000 0.000000
1.400000 1.700000 0.000000
0.000000 1.800000 0.000000
0.100000 1.800000 0.000000
0.200000 1.800000 0.000000
0.300000 1.800000 0.000000
0.400000 1.800000 0.000000
0.500000 1.800000 0.000000
0.600000 1.800000 0.000000
0.700000 1.800000 0.000000
0.800000 1.800000 0.000000
0.900000 1.800000 0.000000
1.000000 1.800000 0.000000
1.100000 1.800000 0.000000
1.200000 1.800000 0.000000
1.300000 1.800000 0.000000
1.400000 1.800000 0.000000
0.000000 1.900000 0.000000
0.100000 1.900000 0.000000
0.200000 1.900000 0.000000
0.300000 1.900000 0.000000
0.400000 1.900000 0.000000
0.500000 1.900000 0.000000
0.600000 1.900000 0.000000
0.700000 1.900000 0.000000
0.800000 1.900000 0.000000
0.900000 1.900000 0.000000
1.000000 1.900000 0.000000
1.100000 1.900000 0.000000
1.200000 1.900000 0.000000
1.300000 1.900000 0.000000
1.400000 1.900000 0.000000
0.000000 2.000000 0.000000
0.100000 2.000000 0.000000
0.200000 2.000000 0.000000
0.300000 2.000000 0.000000
0.400000 2.000000 0.000000
0.500000 2.000000 0.000000
0.600000 2.000000 0.000000
0.700000 2.000000 0.000000
0.800000 2.000000 0.000000
0.900000 2.000000 0.000000
1.000000 2.000000 0.000000
1.100000 2.000000 0.000000
1.200000 2.000000 0.000000
1.300000 2.000000 0.000000
1.400000 2.000000 0.000000
0.000000 1.000000 0.100000
0.100000 1.000000 0.100000
0.200000 1.000000 0.100000
0.300000 1.000000 0.100000
0.400000 1.000000 0.100000
0.500000 1.000000 0.100000
0.600000 1.000000 0.100000
0.700000 1.000000 0.100000
0.800000 1.000000 0.100000
0.900000 1.000000 0.100000
1.000000 1.000000 0.100000
1.100000 1.000000 0.100000
1.200000 1.000000 0.100000
1.300000 1.000000 0.100000
1.400000 1.000000 0.100000
0.000000 1.100000 0.100000
0.100000 1.100000 0.100000
0.200000 1.100000 0.100000
0.300000 1.100000 0.100000
0.400000 1.100000 0.100000
0.500000 1.100000 0.100000
0.600000 1.100000 0.100000
0.700000 1.100000 0.100000
0.800000 1.100000 0.100000
0.900000 1.100000 0.100000
1.000000 1.100000 0.100000
1.100000 1.100000 0.100000
1.200000 1.100000 0.100000
1.300000 1.100000 0.100000
1.400000 1.100000 0.100000
0.000000 1.200000 0.100000
0.100000 1.200000 0.100000
0.200000 1.200000 0.100000
0.300000 1.200000 0.100000
0.400000 1.200000 0.100000
0.500000 1.200000 0.100000
0.600000 1.200000 0.100000
0.700000 1.200000 0.100000
0.800000 1.200000 0.100000
0.900000 1.200000 0.100000
1.000000 1.200000 0.100000
1.100000 1.200000 0.100000
1.200000 1.200000 0.100000
1.300000 1.200000 0.100000
1.400000 1.200000 0.100000
0.000000 1.300000 0.100000
0.100000 1.300000 0.100000
0.200000 1.300000 0.100000
0.300000 1.300000 0.100000
0.400000 1.300000 0.100000
0.500000 1.300000 0.100000
0.600000 1.300000 0.100000
0.700000 1.300000 0.100000
0.800000 1.300000 0.100000
0.900000 1.300000 0.100000
1.000000 1.300000 0.100000
1.100000 1.300000 0.100000
1.200000 1.300000 0.100000
1.300000 1.300000 0.100000
1.400000 1.300000 0.100000
0.000000 1.400000 0.100000
0.100000 1.400000 0.100000
0.200000 1.400000 0.100000
0.300000 1.400000 0.100000
0.400000 1.400000 0.100000
0.500000 1.400000 0.100000
0.600000 1.400000 0.100000
0.700000 1.400000 0.100000
0.800000 1.400000 0.100000
0.900000 1.400000 0.100000
1.000000 1.400000 0.100000
1.100000 1.400000 0.100000
1.200000 1.400000 0.100000
1.300000 1.400000 0.100000
1.400000 1.400000 0.100000
0.000000 1.500000 0.100000
0.100000 1.500000 0.100000
0.200000 1.500000 0.100000
0.300000 1.500000 0.100000
0.400000 1.500000 0.100000
0.500000 1.500000 0.100000
0.600000 1.500000 0.100000
0.700000 1.500000 0.100000
0.800000 1.500000 0.100000
0.900000 1.500000 0.100000
1.000000 1.500000 0.100000
1.100000 1.500000 0.100000
1.200000 1.500000 0.100000
1.300000 1.500000 0.100000
1.400000 1.500000 0.100000
0.000000 1.600000 0.100000
0.100000 1.600000 0.100000
0.200000 1.600000 0.100000
0.300000 1.600000 0.100000
0.400000 1.600000 0.100000
0.500000 1.600000 0.100000
0.600000 1.600000 0.100000
0.700000 1.600000 0.100000
0.800000 1.600000 0.100000
0.900000 1.600000 0.100000
1.000000 1.600000 0.100000
1.100000 1.600000 0.100000
1.200000 1.600000 0.100000
1.300000 1.600000 0.100000
1.400000 1.600000 0.100000
0.000000 1.700000 0.100000
0.100000 1.700000 0.100000
0.200000 1.700000 0.100000
0.300000 1.700000 0.100000
0.400000 1.700000 0.100000
0.500000 1.700000 0.100000
0.600000 1.700000 0.100000
0.700000 1.700000 0.100000
0.800000 1.700000 0.100000
0.900000 1.700000 0.100000
1.000000 1.700000 0.100000
1.100000 1.700000 0.100000
1.200000 1.700000 0.100000
1.300000 1.700000 0.100000
1.400000 1.700000 0.100000
0.000000 1.800000 0.100000
0.100000 1.800000 0.100000
0.200000 1.800000 0.100000
0.300000 1.800000 0.100000
0.400000 1.800000 0.100000
0.500000 1.800000 0.100000
0.600000 1.800000 0.100000
0.700000 1.800000 0.100000
0.800000 1.800000 0.100000
0.900000 1.800000 0.100000
1.000000 1.800000 0.100000
1.100000 1.800000 0.100000
1.200000 1.800000 0.100000
1.300000 1.800000 0.100000
1.400000 1.800000 0.100000
0.000000 1.900000 0.100000
0.100000 1.900000 0.100000
0.200000 1.900000 0.100000
0.300000 1.900000 0.100000
0.400000 1.900000 0.100000
0.500000 1.900000 0.100000
0.600000 1.900000 0.100000
0.700000 1.900000 0.100000
0.800000 1.900000 0.100000
0.900000 1.900000 0.100000
1.000000 1.900000 0.100000
1.100000 1.900000 0.100000
1.200000 1.900000 0.100000
1.300000 1.900000 0.100000
1.400000 1.900000 0.100000
0.000000 2.000000 0.100000
0.100000 2.000000 0.100000
0.200000 2.000000 0.100000
0.300000 2.000000 0.100000
0.400000 2.000000 0.100000
0.500000 2.000000 0.100000
0.600000 2.000000 0.100000
0.700000 2.000000 0.100000
0.800000 2.000000 0.100000
0.900000 2.000000 0.100000
1.000000 2.000000 0.100000
1.100000 2.000000 0.100000
1.200000 2.000000 0.100000
1.300000 2.000000 0.100000
1.400000 2.000000 0.100000
0.000000 1.000000 0.200000
0.100000 1.000000 0.200000
0.200000 1.000000 0.200000
0.300000 1.000000 0.200000
0.400000 1.000000 0.200000
0.500000 1.000000 0.200000
0.600000 1.000000 0.200000
0.700000 1.000000 0.200000
0.800000 1.000000 0.200000
0.900000 1.000000 0.200000
1.000000 1.000000 0.200000
1.100000 1.000000 0.200000
1.200000 1.000000 0.200000
1.300000 1.000000 0.200000
1.400000 1.000000 0.200000
0.000000 1.100000 0.200000
0.100000 1.100000 0.200000
0.200000 1.100000 0.200000
0.300000 1.100000 0.200000
0.400000 1.100000 0.200000
0.500000 1.100000 0.200000
0.600000 1.100000 0.200000
0.700000 1.100000 0.200000
0.800000 1.100000 0.200000
0.900000 1.100000 0.200000
1.000000 1.100000 0.200000
1.100000 1.100000 0.200000
1.200000 1.100000 0.200000
1.300000 1.100000 0.200000
1.400000 1.100000 0.200000
0.000000 1.200000 0.200000
0.100000 1.200000 0.200000
0.200000 1.200000 0.200000
0.300000 1.200000 0.200000
0.400000 1.200000 0.200000
[...]
CELL_DATA 2800
SCALARS pressure float 1
LOOKUP_TABLE default
64.2101
47.4261
39.8682
36.1665
34.1038
32.7577
31.7269
30.819
29.9258
28.9778
27.9247
26.7379
25.4162
23.9841
63.584
47.1396
39.7336
36.1003
34.0676
32.7327
31.7034
30.792
29.8936
28.941
27.8864
26.7028
25.3892
23.9689
62.3417
46.5758
39.4722
35.9746
34.001
32.6883
31.6621
30.7443
29.8359
28.8746
27.8168
26.6387
25.3396
23.9408
60.5055
45.7553
39.1015
35.804
33.9167
32.6359
31.6144
30.6877
29.7658
28.7924
27.7298
26.558
25.2767
23.9047
58.1126
44.7117
38.6491
35.6103
33.8323
32.5909
31.5747
30.6373
29.6989
28.7109
27.6417
26.475
25.2113
23.8668
55.222
43.4972
38.1556
35.4236
33.7701
32.5705
31.558
30.6069
29.6496
28.6448
27.5667
26.4025
25.1533
23.8328
51.9321
42.194
37.68
35.2829
33.755
32.5913
31.576
30.6069
29.6277
28.6041
27.5147
26.3493
25.1093
23.8066
48.4225
40.9378
37.3061
35.2339
33.8095
32.663
31.633
30.6392
29.6351
28.591
27.4883
26.3183
25.082
23.79
45.0631
39.9565
37.1413
35.3146
33.9386
32.7778
31.7175
30.6932
29.6633
28.5996
27.484
26.3074
25.0704
23.7825
42.715
39.5976
37.2585
35.4961
34.0885
32.8848
31.7895
30.7397
29.6921
28.6165
27.493
26.3116
25.0721
23.7831
50.5854
44.777
40.0061
36.8065
34.6715
33.15
31.9558
30.9167
29.9243
28.9077
27.8161
26.6203
25.3159
23.9221
50.2382
44.547
39.8704
36.7287
34.6253
33.119
31.9303
30.8912
29.8964
28.8772
27.7849
26.592
25.2944
23.91
49.5528
44.0958
39.6068
36.5796
34.5386
33.0622
31.8844
30.8454
29.8461
28.8218
27.7283
26.5404
25.2547
23.8875
48.5502
43.4434
39.2327
36.374
34.4237
32.9906
31.8284
30.7899
29.7844
28.7533
27.6575
26.4754
25.2044
23.8587
47.2644
42.6221
38.7754
36.1335
34.298
32.9186
31.7754
30.7376
29.7247
28.6852
27.586
26.4091
25.1526
23.8288
45.7494
41.6813
38.2741
35.8874
34.1828
32.8625
31.7391
30.7009
29.6793
28.6302
27.5261
26.3522
25.1075
23.8026
44.0909
40.6954
37.7833
35.672
34.1015
32.8373
31.7301
30.689
29.6571
28.5972
27.4864
26.3126
25.0752
23.7838
42.4347
39.7787
37.3765
35.5286
34.0748
32.853
31.7533
30.705
29.6611
28.5898
27.4709
26.2941
25.059
23.7743
41.0384
39.1048
37.1446
35.4945
34.1121
32.9068
31.8025
30.7431
29.6875
28.6061
27.4795
26.2978
25.0604
23.7754
40.3448
38.9178
37.1769
35.5809
34.1954
32.9746
31.8566
30.7878
29.7261
28.6406
27.5102
26.3238
25.0805
23.7884
43.2362
41.3204
38.7552
36.4979
34.7004
33.2683
32.0734
31.008
29.9892
28.9523
27.8462
26.6371
25.3202
23.9226
43.0379
41.161
38.6449
36.4261
34.6533
33.2346
32.0452
30.9801
29.9587
28.9191
27.8123
26.6067
25.2976
23.9105
42.65
40.8507
38.4319
36.289
34.5647
33.1725
31.9938
30.9296
29.9038
28.859
27.7507
26.5511
25.2561
23.8874
42.0917
40.408
38.1325
36.1005
34.4468
33.0927
31.9298
30.8674
29.8362
28.7847
27.6742
26.4817
25.2039
23.8577
41.3942
39.8622
37.7718
35.8811
34.316
33.0094
31.8664
30.8069
29.7702
28.7115
27.5984
26.4123
25.151
23.8274
40.6038
39.2559
37.3846
35.6572
34.1923
32.9384
31.817
30.761
29.719
28.653
27.5365
26.3548
25.1065
23.8019
39.7892
38.649
37.0161
35.4606
34.0971
32.8942
31.7929
30.7396
29.6922
28.6189
27.4979
26.3176
25.0769
23.7852
39.0534
38.1242
36.7234
35.326
34.0499
32.8878
31.8006
30.7477
29.6946
28.6142
27.4878
26.3054
25.0665
23.7797
38.5438
37.79
36.5727
35.2871
34.0646
32.9228
31.8399
30.7844
29.7263
28.6403
27.5085
26.3213
25.0781
23.7874
38.424
37.7716
36.6319
35.3696
34.1441
32.9931
31.9029
30.8435
29.7836
28.6961
27.5611
26.3677
25.1148
23.8113
39.275
38.6692
37.3233
35.8319
34.4441
33.2145
32.118
31.1054
30.1228
29.1127
28.0175
26.7881
25.4172
23.9767
39.1549
38.5625
37.2407
35.7719
34.4002
33.1794
32.0856
31.0707
30.0829
29.0673
27.9699
26.7454
25.3876
23.9618
38.9232
38.3567
37.0825
35.6581
34.318
33.1148
32.0265
31.008
30.0107
28.9849
27.883
26.6672
25.3328
23.9325
38.5977
38.0689
36.8637
35.5036
34.2094
33.032
31.9525
30.9305
29.9219
28.8836
27.7759
26.5703
25.2648
23.8939
38.2063
37.7247
36.6065
35.3271
34.0902
32.9454
31.8784
30.8545
29.8355
28.7853
27.6725
26.4766
25.197
23.855
37.7881
37.359
36.3398
35.1516
33.9789
32.8709
31.8188
30.795
29.7678
28.7079
27.5908
26.4021
25.1417
23.8237
37.3955
37.0168
36.0989
35.0032
33.8945
32.8227
31.7859
30.7636
29.7305
28.6629
27.5416
26.3562
25.1068
23.8045
37.0952
36.7522
35.9238
34.909
33.8545
32.8124
31.788
30.7673
29.7301
28.6565
27.5306
26.344
25.0972
23.8001
36.9592
36.6223
35.8555
34.8943
33.8725
32.8466
31.8284
30.8084
29.7691
28.6918
27.5612
26.3692
25.1166
23.8131
37.0124
36.6717
35.9311
34.9804
33.9574
32.927
31.9061
30.8859
29.8477
28.7703
27.6364
26.4361
25.1696
23.8475
37.0525
36.863
36.1229
35.137
34.0966
33.0891
32.1381
31.233
30.3432
29.4163
28.3745
27.1177
25.6033
24.0857
36.9745
36.7904
36.0621
35.0883
34.0563
33.0522
32.0989
31.1864
30.285
29.3455
28.2962
27.0469
25.5595
24.0658
36.8265
36.6526
35.9471
34.9967
33.9815
32.9844
32.0279
31.1021
30.1798
29.2166
28.1522
26.9152
25.4782
24.0241
36.6252
36.4647
35.7914
34.8745
33.884
32.8983
31.9393
30.9984
30.0507
29.0585
27.9744
26.7512
25.3818
23.966
36.3958
36.2489
35.6143
34.7388
33.7794
32.8097
31.851
30.897
29.9263
28.9088
27.81
26.6018
25.2851
23.9081
36.1707
36.0336
35.4395
34.6094
33.6849
32.7346
31.7799
30.8171
29.8293
28.7935
27.6857
26.4894
25.207
23.8633
35.989
35.8511
35.2934
34.507
33.6173
32.6874
31.7394
30.7723
29.7736
28.7259
27.6121
26.4221
25.1584
23.8368
35.8917
35.734
35.2018
34.4515
33.5912
32.6794
31.7388
30.7711
29.7667
28.7116
27.5927
26.4029
25.1447
23.8308
35.9057
35.7067
35.1865
34.4593
33.6178
32.7178
31.7833
30.8177
29.8123
28.754
27.6303
26.4347
25.1698
23.8479
35.9962
35.7707
35.2609
34.5426
33.7046
32.8063
31.8747
30.9135
29.9126
28.8562
27.7291
26.5229
25.2397
23.893
35.7512
35.6754
35.226
34.5488
33.767
32.9598
32.1689
31.4089
30.6709
29.9126
29.0254
27.7723
25.8353
24.2498
35.6962
35.6239
35.1803
34.5085
33.729
32.9196
32.1203
31.3446
30.5835
29.7971
28.8871
27.6411
25.7693
24.2239
35.5938
35.5277
35.0949
34.4334
33.6592
32.8462
32.0322
31.2285
30.4249
29.5847
28.6272
27.3894
25.6491
24.1646
35.4599
35.4006
34.9823
34.3356
33.5696
32.754
31.9231
31.0859
30.2307
29.323
28.2985
27.0578
25.5375
24.0744
35.3174
35.2622
34.8595
34.2305
33.4761
32.6606
31.8154
30.9479
30.0471
29.0848
28.0169
26.7933
25.4066
23.9841
35.1935
35.1352
34.7459
34.1354
33.395
32.5833
31.729
30.8394
29.906
28.9081
27.8182
26.6127
25.2954
23.9165
35.1175
35.0429
34.6608
34.0669
33.3414
32.5366
31.6792
30.7766
29.8231
28.8045
27.7036
26.5089
25.2253
23.8776
35.1131
35.0037
34.6203
34.0391
33.3273
32.5312
31.6756
30.7683
29.8051
28.7755
27.6677
26.4752
25.2028
23.8673
35.1828
35.0228
34.6332
34.0612
33.3609
32.5739
31.7241
30.8192
29.8553
28.8222
27.7091
26.5106
25.2315
23.8872
35.2697
35.0823
34.6994
34.1383
33.4469
32.6681
31.8274
30.9323
29.977
28.9484
27.8322
26.6209
25.3188
23.9431
34.969
34.9081
34.5967
34.1027
33.5022
32.8599
32.2246
31.6326
31.1075
30.6499
30.1768
29.2527
26.1146
24.423
34.9265
34.8691
34.5605
34.0677
33.465
32.815
32.1642
31.5456
30.9794
30.4646
29.9283
28.9824
26.0001
24.3861
34.8489
34.7974
34.4939
34.0033
33.3969
32.7335
32.0551
31.3883
30.7452
30.118
29.4455
28.4441
25.7209
24.3075
34.7515
34.706
34.4084
33.9211
33.311
32.632
31.9205
31.1955
30.4578
29.6818
28.788
27.5714
25.6537
24.2021
34.6554
34.6122
34.3194
33.8359
33.2234
32.5307
31.7888
31.0112
30.1932
29.3072
28.294
27.0575
25.5372
24.0733
34.5842
34.5351
34.2431
33.7631
33.1504
32.4484
31.684
30.8678
29.9947
29.0439
27.9801
26.7642
25.3949
23.9764
34.5604
34.4916
34.1943
33.7164
33.1057
32.4001
31.6227
30.783
29.8774
28.8921
27.8074
26.6076
25.2989
23.9214
34.5973
34.4914
34.1824
33.7056
33.0995
32.3958
31.615
30.7654
29.8445
28.8428
27.7478
26.5528
25.2643
23.905
34.6841
34.5295
34.2088
33.7356
33.1375
32.4416
31.6665
30.8193
29.8973
28.891
27.7899
26.589
25.2948
23.9267
34.7581
34.5806
34.2663
33.8063
33.222
32.5403
31.7802
30.9482
30.0394
29.0404
27.9368
26.7209
25.399
23.9926
34.5006
34.4263
34.1798
33.7926
33.3136
32.7969
32.2973
31.8727
31.5946
31.5706
32.0133
33.2399
0.0
0.0
34.4646
34.3944
34.1492
33.7605
33.2758
32.7469
32.2247
31.7615
31.4201
31.2968
31.5922
32.6204
0.0
0.0
34.4
34.3365
34.0936
33.7021
33.2072
32.6563
32.0935
31.5598
31.0986
30.7749
30.7523
31.3895
0.0
0.0
34.3218
34.265
34.0239
33.6288
33.1216
32.5443
31.9324
31.3128
30.7009
30.0924
29.4288
28.4262
25.6858
24.2718
34.2498
34.1959
33.9544
33.555
33.0359
32.4335
31.7759
31.0796
30.3447
29.5456
28.6094
27.3787
25.6355
24.1497
34.2053
34.1456
33.8995
33.4951
32.9665
32.3446
31.6521
30.8998
30.084
29.182
28.1487
26.9237
25.4876
24.0308
34.2064
34.1274
33.8708
33.461
32.9264
32.2929
31.5789
30.7925
29.9304
28.9773
27.9093
26.7042
25.3681
23.9612
34.2601
34.1457
33.8738
33.4598
32.9244
32.2883
31.5664
30.7651
29.8816
28.9054
27.8228
26.6253
25.3209
23.9388
34.3494
34.1904
33.906
33.4935
32.965
32.3362
31.6199
30.8208
29.9353
28.9533
27.8634
26.6603
25.352
23.9616
34.4113
34.2342
33.9568
33.5596
33.0486
32.4387
31.7424
30.9635
30.0953
29.1233
28.0315
26.8114
25.471
24.036
34.2362
34.1455
33.9286
33.6003
33.1959
32.764
32.3637
32.0693
31.9842
32.2675
33.1873
35.2065
0.0
0.0
34.2034
34.1172
33.901
33.5696
33.1573
32.7096
32.2812
31.9385
31.7723
31.9251
32.6475
34.3821
0.0
0.0
34.1451
34.0665
33.8511
33.5141
33.0873
32.6114
32.1322
31.7007
31.381
31.2703
31.5688
32.5832
0.0
0.0
34.0763
34.0053
33.7898
33.4452
33.0005
32.4902
31.9494
31.4101
30.8968
30.4143
29.8927
28.9433
25.9377
24.3269
34.0159
33.9489
33.7306
33.3772
32.9145
32.371
31.7727
31.1372
30.4673
29.7362
28.8552
27.6186
25.7431
24.1977
33.984
33.9121
33.6868
33.324
32.8459
32.276
31.6333
30.928
30.1562
29.2925
28.2829
27.0493
25.5639
24.0682
33.9961
33.906
33.6683
33.2962
32.8077
32.2209
31.5503
30.8025
29.973
29.0448
27.9897
26.7802
25.4223
23.9902
34.0559
33.9324
33.6785
33.2999
32.8077
32.2154
31.5337
30.7668
29.9108
28.9541
27.881
26.6814
25.3644
23.9639
34.1433
33.9789
33.7128
33.3353
32.8495
32.2646
31.5884
30.8235
29.9648
29.001
27.9196
26.7147
25.3954
23.9875
34.1967
34.0178
33.7595
33.3986
32.9329
32.3701
31.7177
30.9765
30.1382
29.1866
28.1038
26.8804
25.5257
24.0684
34.1171
34.0167
33.8113
33.5093
33.1404
32.751
32.4028
32.1784
32.1951
32.6315
33.7701
36.0596
0.0
0.0
34.0856
33.9899
33.7849
33.4792
33.1011
32.6942
32.3148
32.0367
31.9633
32.2538
33.1719
35.1462
0.0
0.0
34.0299
33.9422
33.7374
33.4247
33.0301
32.5916
32.1559
31.7793
31.5345
31.5307
31.9774
33.1673
0.0
0.0
33.9647
33.8853
33.6797
33.3575
32.9422
32.4652
31.9612
31.4647
31.0044
30.5869
30.1321
29.201
26.0197
24.3415
33.909
33.8341
33.6248
33.2918
32.8555
32.3412
31.7732
31.1701
30.5352
29.8402
28.9867
27.7443
25.8017
24.2174
33.882
33.8029
33.5857
33.2412
32.7869
32.2425
31.6251
30.9446
30.1964
29.3535
28.3561
27.1175
25.6057
24.0862
33.8981
33.8016
33.5713
33.2161
32.7491
32.1852
31.5366
30.8088
29.9968
29.0821
28.0339
26.8218
25.4518
24.0052
33.9596
33.8308
33.5842
33.2216
32.7499
32.179
31.5176
30.7686
29.9272
28.9809
27.9129
26.7121
25.3881
23.9773
34.0451
33.8775
33.6191
33.2575
32.7922
32.2287
31.573
30.8258
29.9811
29.0271
27.9503
26.7444
25.419
24.0015
34.0942
33.9141
33.6639
33.3196
32.8756
32.336
31.7058
30.9843
30.1619
29.2211
28.1432
26.9181
25.5554
24.0859
34.1173
34.0168
33.8114
33.5094
33.1406
32.7511
32.403
32.1786
32.1953
32.6314
33.769
36.0557
0.0
0.0
34.0857
33.99
33.785
33.4793
33.1013
32.6944
32.3151
32.0371
31.9638
32.2546
33.1735
35.1495
0.0
0.0
34.03
33.9423
33.7376
33.4248
33.0302
32.5918
32.1562
31.7798
31.5353
31.5322
31.9807
33.1756
0.0
0.0
33.9649
33.8855
33.6798
33.3577
32.9424
32.4654
31.9615
31.4652
31.0051
30.5881
30.1342
29.2043
26.0215
24.3422
33.9092
33.8343
33.625
33.292
32.8557
32.3414
31.7735
31.1704
30.5357
29.841
28.988
27.7459
25.8028
24.2182
33.8822
33.8031
33.5858
33.2414
32.7871
32.2427
31.6254
30.9449
30.1968
29.3541
28.3569
27.1183
25.6064
24.0868
33.8983
33.8018
33.5714
33.2162
32.7493
32.1854
31.5369
30.8091
29.9971
29.0825
28.0345
26.8224
25.4524
24.0057
33.9597
33.831
33.5844
33.2217
32.75
32.1793
31.5178
30.7688
29.9275
28.9813
27.9133
26.7126
25.3885
23.9778
34.0453
33.8776
33.6193
33.2577
32.7924
32.229
31.5732
30.826
29.9815
29.0275
27.9507
26.7448
25.4195
24.002
34.0944
33.9143
33.6641
33.3198
32.8758
32.3362
31.7061
30.9846
30.1622
29.2216
28.1436
26.9186
25.5559
24.0863
34.2366
34.1459
33.929
33.6007
33.1963
32.7644
32.3642
32.07
31.9847
32.2674
33.185
35.1973
0.0
0.0
34.2039
34.1176
33.9014
33.5701
33.1577
32.7102
32.2819
31.9395
31.7738
31.9275
32.6521
34.392
0.0
0.0
34.1456
34.0669
33.8515
33.5145
33.0878
32.612
32.133
31.702
31.383
31.2743
31.578
32.6076
0.0
0.0
34.0768
34.0058
33.7902
33.4457
33.001
32.4908
31.9503
31.4112
30.8987
30.4176
29.8985
28.9529
25.9435
24.3297
34.0164
33.9493
33.7311
33.3777
32.915
32.3717
31.7735
31.1382
30.4688
29.7384
28.8586
27.623
25.7464
24.2
33.9846
33.9126
33.6873
33.3245
32.8465
32.2766
31.6341
30.9289
30.1574
29.2941
28.285
27.0518
25.5661
24.0699
33.9967
33.9065
33.6688
33.2967
32.8082
32.2215
31.551
30.8033
29.974
29.046
27.9912
26.7818
25.4238
23.9916
34.0564
33.9329
33.679
33.3004
32.8083
32.216
31.5344
30.7676
29.9118
28.9552
27.8822
26.6827
25.3657
23.9651
34.1438
33.9794
33.7133
33.3358
32.8501
32.2652
31.5892
30.8244
29.9657
29.0021
27.9208
26.716
25.3967
23.9887
34.1972
34.0184
33.76
33.3991
32.9335
32.3707
31.7184
30.9774
30.1393
29.1878
28.1051
26.8819
25.5272
24.0698
34.5013
34.427
34.1805
33.7932
33.3142
32.7977
32.2981
31.8738
31.5958
31.5713
32.0117
33.23
0.0
0.0
34.4654
34.395
34.1499
33.7612
33.2766
32.7478
32.2258
31.7631
31.4224
31.3003
31.5984
32.6329
0.0
0.0
34.4008
34.3372
34.0943
33.7028
33.208
32.6573
32.0948
31.5616
31.1015
30.7802
30.7641
31.4215
0.0
0.0
34.3226
34.2657
34.0246
33.6296
33.1225
32.5453
31.9337
31.3145
30.7035
30.0968
29.4364
28.4388
25.6953
24.2776
34.2506
34.1966
33.9552
33.5558
33.0368
32.4345
31.7771
31.0811
30.3468
29.5487
28.614
27.3848
25.6406
24.1534
34.2062
34.1464
33.9003
33.4959
32.9674
32.3456
31.6533
30.9012
30.0857
29.1843
28.1517
26.9272
25.4909
24.0335
34.2073
34.1282
33.8716
33.4618
32.9273
32.2939
31.5801
30.7939
29.9319
28.9792
27.9115
26.7066
25.3705
23.9633
34.261
34.1465
33.8747
33.4606
32.9253
32.2893
31.5675
30.7664
29.883
28.907
27.8247
26.6273
25.3229
23.9407
34.3503
34.1913
33.9068
33.4944
32.9659
32.3372
31.6211
30.8221
29.9368
28.955
27.8652
26.6622
25.354
23.9634
34.4122
34.2351
33.9577
33.5605
33.0495
32.4398
31.7436
30.9649
30.0969
29.1251
28.0335
26.8136
25.4733
24.0381
34.97
34.909
34.5975
34.1036
33.5032
32.8609
32.2259
31.6342
31.1094
30.652
30.1789
29.2554
26.1244
24.4346
34.9275
34.87
34.5614
34.0686
33.466
32.8161
32.1657
31.5476
30.9821
30.4686
29.9345
28.9927
26.0174
24.4011
34.8499
34.7984
34.4948
34.0043
33.398
32.7347
32.0566
31.3904
30.7484
30.1231
29.4542
28.4598
25.7438
24.3239
34.7526
34.707
34.4094
33.9221
33.3121
32.6333
31.9221
31.1975
30.4607
29.6862
28.7948
27.5814
25.6641
24.21
34.6565
34.6133
34.3204
33.8369
33.2246
32.532
31.7904
31.0131
30.1957
29.3107
28.2987
27.0635
25.5431
24.078
34.5854
34.5361
34.2442
33.7641
33.1516
32.4498
31.6856
30.8695
29.9968
29.0466
27.9835
26.7681
25.3988
23.9797
34.5616
34.4927
34.1954
33.7175
33.1069
32.4014
31.6242
30.7847
29.8793
28.8944
27.8101
26.6105
25.3018
23.924
34.5985
34.4925
34.1835
33.7068
33.1007
32.3971
31.6165
30.767
29.8464
28.8448
27.7502
26.5553
25.2668
23.9073
34.6853
34.5306
34.21
33.7368
33.1387
32.443
31.668
30.821
29.8992
28.8931
27.7922
26.5915
25.2973
23.929
34.7593
34.5818
34.2675
33.8075
33.2233
32.5417
31.7817
30.95
30.0414
29.0427
27.9394
26.7236
25.4017
23.9952
35.7523
35.6764
35.227
34.5499
33.7681
32.9611
32.1704
31.4108
30.6733
29.9155
29.029
27.7771
25.8428
24.257
35.6973
35.625
35.1814
34.5096
33.7303
32.921
32.1219
31.3468
30.5864
29.801
28.8925
27.6485
25.7789
24.2322
35.595
35.5288
35.096
34.4346
33.6604
32.8477
32.034
31.2307
30.428
29.5891
28.6335
27.3984
25.6598
24.1732
35.4612
35.4018
34.9835
34.3368
33.5709
32.7555
31.925
31.0881
30.2337
29.327
28.304
27.0649
25.545
24.0806
35.3187
35.2634
34.8607
34.2317
33.4775
32.6621
31.8172
30.95
30.0497
29.0882
28.0212
26.7985
25.4118
23.9885
35.1949
35.1365
34.7471
34.1367
33.3964
32.5849
31.7309
30.8415
29.9083
28.9109
27.8216
26.6166
25.2993
23.9199
35.1189
35.0442
34.6621
34.0683
33.3428
32.5382
31.6809
30.7786
29.8253
28.807
27.7064
26.512
25.2284
23.8804
35.1146
35.0051
34.6217
34.0404
33.3287
32.5328
31.6774
30.7702
29.8073
28.7779
27.6703
26.478
25.2055
23.8699
35.1843
35.0242
34.6346
34.0627
33.3624
32.5755
31.7259
30.8212
29.8575
28.8246
27.7117
26.5134
25.2343
23.8899
35.2712
35.0838
34.7009
34.1397
33.4484
32.6698
31.8292
30.9343
29.9794
28.951
27.8351
26.624
25.3219
23.946
37.0537
36.8641
36.124
35.1382
34.0979
33.0905
32.1397
31.235
30.3458
29.4194
28.3782
27.1222
25.6087
24.0907
36.9758
36.7916
36.0633
35.0895
34.0577
33.0537
32.1007
31.1886
30.288
29.3491
28.3007
27.0524
25.5656
24.0712
36.8278
36.6538
35.9484
34.998
33.9829
32.9861
32.0298
31.1045
30.1828
29.2204
28.1571
26.9212
25.4846
24.0296
36.6266
36.466
35.7927
34.8759
33.8855
32.9001
31.9413
31.0008
30.0536
29.0621
27.9789
26.7565
25.3872
23.9706
36.3973
36.2503
35.6157
34.7403
33.781
32.8114
31.8531
30.8993
29.929
28.9121
27.8139
26.6062
25.2896
23.912
36.1723
36.035
35.441
34.6109
33.6865
32.7363
31.7819
30.8193
29.8318
28.7964
27.689
26.4931
25.2106
23.8666
35.9906
35.8526
35.2949
34.5086
33.6189
32.6892
31.7413
30.7745
29.776
28.7285
27.615
26.4252
25.1616
23.8397
35.8933
35.7356
35.2034
34.4531
33.5929
32.6811
31.7407
30.7733
29.7691
28.7142
27.5955
26.4058
25.1476
23.8335
35.9074
35.7084
35.1881
34.4609
33.6195
32.7196
31.7853
30.8199
29.8147
28.7566
27.6331
26.4376
25.1727
23.8506
35.998
35.7724
35.2626
34.5443
33.7063
32.8082
31.8767
30.9157
29.9151
28.859
27.7321
26.5261
25.2429
23.896
39.2762
38.6704
37.3245
35.8331
34.4454
33.216
32.1198
31.1076
30.1254
29.1158
28.0212
26.7921
25.4215
23.9807
39.1563
38.5637
37.242
35.7732
34.4016
33.1811
32.0875
31.073
30.0857
29.0707
27.9739
26.7499
25.3923
23.9659
38.9246
38.3581
37.0838
35.6595
34.3196
33.1166
32.0285
31.0104
30.0136
28.9884
27.8872
26.6719
25.3375
23.9367
38.5992
38.0703
36.8651
35.5051
34.211
33.0338
31.9546
30.933
29.9248
28.887
27.7799
26.5747
25.2692
23.8978
38.2079
37.7262
36.6079
35.3286
34.0919
32.9473
31.8805
30.8569
29.8382
28.7885
27.6761
26.4805
25.2009
23.8586
37.7898
37.3606
36.3413
35.1532
33.9806
32.8728
31.8209
30.7973
29.7704
28.7108
27.5941
26.4056
25.1451
23.8269
37.3972
37.0185
36.1005
35.0048
33.8963
32.8246
31.788
30.7659
29.733
28.6656
27.5446
26.3593
25.1099
23.8074
37.097
36.7539
35.9255
34.9107
33.8563
32.8143
31.7901
30.7696
29.7326
28.6592
27.5335
26.347
25.1002
23.8029
36.9612
36.6241
35.8573
34.896
33.8744
32.8485
31.8305
30.8107
29.7717
28.6945
27.5641
26.3722
25.1196
23.816
37.0144
36.6737
35.9329
34.9822
33.9592
32.929
31.9082
30.8883
29.8503
28.7732
27.6395
26.4393
25.1728
23.8506
43.2374
41.3216
38.7564
36.4991
34.7017
33.2698
32.0752
31.0102
29.9918
28.9555
27.8497
26.641
25.3241
23.9263
43.0392
41.1623
38.6462
36.4274
34.6547
33.2363
32.0471
30.9824
29.9616
28.9225
27.8161
26.6108
25.3018
23.9142
42.6514
40.8521
38.4333
36.2904
34.5663
33.1743
31.9959
30.932
29.9067
28.8624
27.7546
26.5553
25.2603
23.8911
42.0932
40.4095
38.134
36.102
34.4484
33.0945
31.932
30.8698
29.8391
28.788
27.678
26.4857
25.2079
23.8613
41.3958
39.8638
37.7734
35.8827
34.3177
33.0113
31.8685
30.8094
29.773
28.7146
27.6018
26.416
25.1547
23.8308
40.6054
39.2575
37.3862
35.6589
34.1941
32.9403
31.8192
30.7634
29.7217
28.6559
27.5397
26.3582
25.1099
23.8051
39.791
38.6507
37.0178
35.4623
34.0989
32.8962
31.795
30.742
29.6948
28.6217
27.5009
26.3207
25.0801
23.7881
39.0553
38.1259
36.7252
35.3278
34.0518
32.8898
31.8027
30.7501
29.6972
28.617
27.4908
26.3085
25.0696
23.7825
38.5458
37.7919
36.5745
35.2889
34.0665
32.9248
31.842
30.7868
29.7289
28.6431
27.5115
26.3243
25.0811
23.7903
38.4261
37.7736
36.6338
35.3714
34.146
32.9952
31.9051
30.8459
29.7863
28.699
27.5642
26.3709
25.118
23.8143
50.5866
44.7781
40.0072
36.8077
34.6728
33.1515
31.9576
30.9189
29.9271
28.911
27.8198
26.6242
25.3199
23.9258
50.2394
44.5482
39.8716
36.7299
34.6267
33.1206
31.9322
30.8935
29.8993
28.8806
27.7888
26.5962
25.2985