# vtk DataFile Version 2.0
I need something to put here
ASCII

DATASET STRUCTURED_GRID
DIMENSIONS 41 21 21
POINTS 18081 float
0.000000 0.000000 0.000000
0.100000 0.000000 0.000000
0.200000 0.000000 0.000000
0.300000 0.000000 0.000000
0.400000 0.000000 0.000000
0.500000 0.000000 0.000000
0.600000 0.000000 0.000000
0.700000 0.000000 0.000000
0.800000 0.000000 0.000000
0.900000 0.000000 0.000000
1.000000 0.000000 0.000000
1.100000 0.000000 0.000000
1.200000 0.000000 0.000000
1.300000 0.000000 0.000000
1.400000 0.000000 0.000000
1.500000 0.000000 0.000000
1.600000 0.000000 0.000000
1.700000 0.000000 0.000000
1.800000 0.000000 0.000000
1.900000 0.000000 0.000000
2.000000 0.000000 0.000000
2.100000 0.000000 0.000000
2.200000 0.000000 0.000000
2.300000 0.000000 0.000000
2.400000 0.000000 0.000000
2.500000 0.000000 0.000000
2.600000 0.000000 0.000000
2.700000 0.000000 0.000000
2.800000 0.000000 0.000000
2.900000 0.000000 0.000000
3.000000 0.000000 0.000000
3.100000 0.000000 0.000000
3.200000 0.000000 0.000000
3.300000 0.000000 0.000000
3.400000 0.000000 0.000000
3.500000 0.000000 0.000000
3.600000 0.000000 0.000000
3.700000 0.000000 0.000000
3.800000 0.000000 0.000000
3.900000 0.000000 0.000000
4.000000 0.000000 0.000000
0.000000 0.100000 0.000000
0.100000 0.100000 0.000000
0.200000 0.100000 0.000000
0.300000 0.100000 0.000000
0.400000 0.100000 0.000000
0.500000 0.100000 0.000000
0.600000 0.100000 0.000000
0.700000 0.100000 0.000000
0.800000 0.100000 0.000000
0.900000 0.100000 0.000000
1.000000 0.100000 0.000000
1.100000 0.100000 0.000000
1.200000 0.100000 0.000000
1.300000 0.100000 0.000000
1.400000 0.100000 0.000000
1.500000 0.100000 0.000000
1.600000 0.100000 0.000000
1.700000 0.100000 0.000000
1.800000 0.100000 0.000000
1.900000 0.100000 0.000000
2.000000 0.100000 0.000000
2.100000 0.100000 0.000000
2.200000 0.100000 0.000000
2.300000 0.100000 0.000000
2.400000 0.100000 0.000000
2.500000 0.100000 0.000000
2.600000 0.100000 0.000000
2.700000 0.100000 0.000000
2.800000 0.100000 0.000000
2.900000 0.100000 0.000000
3.000000 0.100000 0.000000
3.100000 0.100000 0.000000
3.200000 0.100000 0.000000
3.300000 0.100000 0.000000
3.400000 0.100000 0.000000
3.500000 0.100000 0.000000
3.600000 0.100000 0.000000
3.700000 0.100000 0.000000
3.800000 0.100000 0.000000
3.900000 0.100000 0.000000
4.000000 0.100000 0.000000
0.000000 0.200000 0.000000
0.100000 0.200000 0.000000
0.200000 0.200000 0.000000
0.300000 0.200000 0.000000
0.400000 0.200000 0.000000
0.500000 0.200000 0.000000
0.600000 0.200000 0.000000
0.700000 0.200000 0.000000
0.800000 0.200000 0.000000
0.900000 0.200000 0.000000
1.000000 0.200000 0.000000
1.100000 0.200000 0.000000
1.200000 0.200000 0.000000
1.300000 0.200000 0.000000
1.400000 0.200000 0.000000
1.500000 0.200000 0.000000
1.600000 0.200000 0.000000
1.700000 0.200000 0.000000
1.800000 0.200000 0.000000
1.900000 0.200000 0.000000
2.000000 0.200000 0.000000
2.100000 0.200000 0.000000
2.200000 0.200000 0.000000
2.300000 0.200000 0.000000
2.400000 0.200000 0.000000
2.500000 0.200000 0.000000
2.600000 0.200000 0.000000
2.700000 0.200000 0.000000
2.800000 0.200000 0.000000
2.900000 0.200000 0.000000
3.000000 0.200000 0.000000
3.100000 0.200000 0.000000
3.200000 0.200000 0.000000
3.300000 0.200000 0.000000
3.400000 0.200000 0.000000
3.500000 0.200000 0.000000
3.600000 0.200000 0.000000
3.700000 0.200000 0.000000
3.800000 0.200000 0.000000
3.900000 0.200000 0.000000
4.000000 0.200000 0.000000
0.000000 0.300000 0.000000
0.100000 0.300000 0.000000
0.200000 0.300000 0.000000
0.300000 0.300000 0.000000
0.400000 0.300000 0.000000
0.500000 0.300000 0.000000
0.600000 0.300000 0.000000
0.700000 0.300000 0.000000
0.800000 0.300000 0.000000
0.900000 0.300000 0.000000
1.000000 0.300000 0.000000
1.100000 0.300000 0.000000
1.200000 0.300000 0.000000
1.300000 0.300000 0.000000
1.400000 0.300000 0.000000
1.500000 0.300000 0.000000
1.600000 0.300000 0.000000
1.700000 0.300000 0.000000
1.800000 0.300000 0.000000
1.900000 0.300000 0.000000
2.000000 0.300000 0.000000
2.100000 0.300000 0.000000
2.200000 0.300000 0.000000
2.300000 0.300000 0.000000
2.400000 0.300000 0.000000
2.500000 0.300000 0.000000
2.600000 0.300000 0.000000
2.700000 0.300000 0.000000
2.800000 0.300000 0.000000
2.900000 0.300000 0.000000
3.000000 0.300000 0.000000
3.100000 0.300000 0.000000
3.200000 0.300000 0.000000
3.300000 0.300000 0.000000
3.400000 0.300000 0.000000
3.500000 0.300000 0.000000
3.600000 0.300000 0.000000
3.700000 0.300000 0.000000
3.800000 0.300000 0.000000
3.900000 0.300000 0.000000
4.000000 0.300000 0.000000
0.000000 0.400000 0.000000
0.100000 0.400000 0.000000
0.200000 0.400000 0.000000
0.300000 0.400000 0.000000
0.400000 0.400000 0.000000
0.500000 0.400000 0.000000
0.600000 0.400000 0.000000
0.700000 0.400000 0.000000
0.800000 0.400000 0.000000
0.900000 0.400000 0.000000
1.000000 0.400000 0.000000
1.100000 0.400000 0.000000
1.200000 0.400000 0.000000
1.300000 0.400000 0.000000
1.400000 0.400000 0.000000
1.500000 0.400000 0.000000
1.600000 0.400000 0.000000
1.700000 0.400000 0.000000
1.800000 0.400000 0.000000
1.900000 0.400000 0.000000
2.000000 0.400000 0.000000
2.100000 0.400000 0.000000
2.200000 0.400000 0.000000
2.300000 0.400000 0.000000
2.400000 0.400000 0.000000
2.500000 0.400000 0.000000
2.600000 0.400000 0.000000
2.700000 0.400000 0.000000
2.800000 0.400000 0.000000
2.900000 0.400000 0.000000
3.000000 0.400000 0.000000
3.100000 0.400000 0.000000
3.200000 0.400000 0.000000
3.300000 0.400000 0.000000
3.400000 0.400000 0.000000
3.500000 0.400000 0.000000
3.600000 0.400000 0.000000
3.700000 0.400000 0.000000
3.800000 0.400000 0.000000
3.900000 0.400000 0.000000
4.000000 0.400000 0.000000
0.000000 0.500000 0.000000
0.100000 0.500000 0.000000
0.200000 0.500000 0.000000
0.300000 0.500000 0.000000
0.400000 0.500000 0.000000
0.500000 0.500000 0.000000
0.600000 0.500000 0.000000
0.700000 0.500000 0.000000
0.800000 0.500000 0.000000
0.900000 0.500000 0.000000
1.000000 0.500000 0.000000
1.100000 0.500000 0.000000
1.200000 0.500000 0.000000
1.300000 0.500000 0.000000
1.400000 0.500000 0.000000
1.500000 0.500000 0.000000
1.600000 0.500000 0.000000
1.700000 0.500000 0.000000
1.800000 0.500000 0.000000
1.900000 0.500000 0.000000
2.000000 0.500000 0.000000
2.100000 0.500000 0.000000
2.200000 0.500000 0.000000
2.300000 0.500000 0.000000
2.400000 0.500000 0.000000
2.500000 0.500000 0.000000
2.600000 0.500000 0.000000
2.700000 0.500000 0.000000
2.800000 0.500000 0.000000
2.900000 0.500000 0.000000
3.000000 0.500000 0.000000
3.100000 0.500000 0.000000
3.200000 0.500000 0.000000
3.300000 0.500000 0.000000
3.400000 0.500000 0.000000
3.500000 0.500000 0.000000
3.600000 0.500000 0.000000
3.700000 0.500000 0.000000
3.800000 0.500000 0.000000
3.900000 0.500000 0.000000
4.000000 0.500000 0.000000
0.000000 0.600000 0.000000
0.100000 0.600000 0.000000
0.200000 0.600000 0.000000
0.300000 0.600000 0.000000
0.400000 0.600000 0.000000
0.500000 0.600000 0.000000
0.600000 0.600000 0.000000
0.700000 0.600000 0.000000
0.800000 0.600000 0.000000
0.900000 0.600000 0.000000
1.000000 0.600000 0.000000
1.100000 0.600000 0.000000
1.200000 0.600000 0.000000
1.300000 0.600000 0.000000
1.400000 0.600000 0.000000
1.500000 0.600000 0.000000
1.600000 0.600000 0.000000
1.700000 0.600000 0.000000
1.800000 0.600000 0.000000
1.900000 0.600000 0.000000
2.000000 0.600000 0.000000
2.100000 0.600000 0.000000
2.200000 0.600000 0.000000
2.300000 0.600000 0.000000
2.400000 0.600000 0.000000
2.500000 0.600000 0.000000
2.600000 0.600000 0.000000
2.700000 0.600000 0.000000
2.800000 0.600000 0.000000
2.900000 0.600000 0.000000
3.000000 0.600000 0.000000
3.100000 0.600000 0.000000
3.200000 0.600000 0.000000
3.300000 0.600000 0.000000
3.400000 0.600000 0.000000
3.500000 0.600000 0.000000
3.600000 0.600000 0.000000
3.700000 0.600000 0.000000
3.800000 0.600000 0.000000
3.900000 0.600000 0.000000
4.000000 0.600000 0.000000
0.000000 0.700000 0.000000
0.100000 0.700000 0.000000
0.200000 0.700000 0.000000
0.300000 0.700000 0.000000
0.400000 0.700000 0.000000
0.500000 0.700000 0.000000
0.600000 0.700000 0.000000
0.700000 0.700000 0.000000
0.800000 0.700000 0.000000
0.900000 0.700000 0.000000
1.000000 0.700000 0.000000
1.100000 0.700000 0.000000
1.200000 0.700000 0.000000
1.300000 0.700000 0.000000
1.400000 0.700000 0.000000
1.500000 0.700000 0.000000
1.600000 0.700000 0.000000
1.700000 0.700000 0.000000
1.800000 0.700000 0.000000
1.900000 0.700000 0.000000
2.000000 0.700000 0.000000
2.100000 0.700000 0.000000
2.200000 0.700000 0.000000
2.300000 0.700000 0.000000
2.400000 0.700000 0.000000
2.500000 0.700000 0.000000
2.600000 0.700000 0.000000
2.700000 0.700000 0.000000
2.800000 0.700000 0.000000
2.900000 0.700000 0.000000
3.000000 0.700000 0.000000
3.100000 0.700000 0.000000
3.200000 0.700000 0.000000
3.300000 0.700000 0.000000
3.400000 0.700000 0.000000
3.500000 0.700000 0.000000
3.600000 0.700000 0.000000
3.700000 0.700000 0.000000
3.800000 0.700000 0.000000
3.900000 0.700000 0.000000
4.000000 0.700000 0.000000
0.000000 0.800000 0.000000
0.100000 0.800000 0.000000
0.200000 0.800000 0.000000
0.300000 0.800000 0.000000
0.400000 0.800000 0.000000
0.500000 0.800000 0.000000
0.600000 0.800000 0.000000
0.700000 0.800000 0.000000
0.800000 0.800000 0.000000
0.900000 0.800000 0.000000
1.000000 0.800000 0.000000
1.100000 0.800000 0.000000
1.200000 0.800000 0.000000
1.300000 0.800000 0.000000
1.400000 0.800000 0.000000
1.500000 0.800000 0.000000
1.600000 0.800000 0.000000
1.700000 0.800000 0.000000
1.800000 0.800000 0.000000
1.900000 0.800000 0.000000
2.000000 0.800000 0.000000
2.100000 0.800000 0.000000
2.200000 0.800000 0.000000
2.300000 0.800000 0.000000
2.400000 0.800000 0.000000
2.500000 0.800000 0.000000
2.600000 0.800000 0.000000
2.700000 0.800000 0.000000
2.800000 0.800000 0.000000
2.900000 0.800000 0.000000
3.000000 0.800000 0.000000
3.100000 0.800000 0.000000
3.200000 0.800000 0.000000
3.300000 0.800000 0.000000
3.400000 0.800000 0.000000
3.500000 0.800000 0.000000
3.600000 0.800000 0.000000
[...]
CELL_DATA 16000
SCALARS pressure float 1
LOOKUP_TABLE default
34.5489
34.3721
34.035
33.5713
33.0069
32.358
31.6325
30.8317
29.9521
28.988
27.9338
26.7875
25.5534
24.2441
22.8808
21.4916
20.1077
18.7585
17.4678
16.251
15.1152
14.0597
13.0781
12.161
11.2976
10.4771
9.68969
8.92717
8.18282
7.45141
6.72901
6.01272
5.30047
4.59085
3.88285
3.17585
2.46944
1.7634
1.05766
0.352279
34.6046
34.4022
34.0512
33.5799
33.0113
32.3603
31.6339
30.833
29.9539
28.9904
27.9369
26.7909
25.5565
24.2463
22.8816
21.4908
20.1054
18.7552
17.4641
16.2476
15.1124
14.0577
13.0769
12.1606
11.2977
10.4775
9.6903
8.92787
8.18351
7.45205
6.72956
6.01318
5.30085
4.59115
3.88309
3.17603
2.46957
1.76349
1.05769
0.352231
34.7248
34.4858
34.1106
33.624
33.0465
32.3912
31.6642
30.8651
29.9891
29.0287
27.9767
26.8293
25.5895
24.2695
22.8918
21.4866
20.0878
18.7272
17.4298
16.2111
15.0771
14.026
13.0501
12.1389
11.2809
10.465
9.68125
8.92152
8.1792
7.44921
6.72776
6.01208
5.30022
4.59081
3.88293
3.17597
2.46956
1.76347
1.05763
0.352131
34.8879
34.6066
34.2015
33.6953
33.1064
32.4465
31.7201
30.9253
30.0554
29.1008
28.0515
26.901
25.6505
24.312
22.9097
21.4774
20.0535
18.6735
17.3644
16.1418
15.0103
13.966
12.9992
12.0976
11.2488
10.4408
9.66357
8.90895
8.17049
7.44333
6.7239
6.00962
5.2987
4.58992
3.88243
3.17571
2.46942
1.76339
1.05755
0.352044
35.0727
34.7493
34.3127
33.7855
33.1849
32.5212
31.7973
31.0097
30.1493
29.2033
28.1581
27.0033
25.7374
24.3719
22.9337
21.462
20.002
18.5945
17.2693
16.0418
14.9146
13.8805
12.9269
12.0393
11.2034
10.4067
9.63865
8.89122
8.15818
7.43499
6.71838
6.00607
5.29648
4.58858
3.88166
3.17529
2.4692
1.76326
1.05747
0.351989
35.2599
34.8983
34.4321
33.885
33.2738
32.6079
31.8887
31.1109
30.263
29.3284
28.2889
27.1293
25.8444
24.4453
22.962
21.4409
19.9358
18.4946
17.1503
15.9179
14.7969
13.7762
12.8394
11.969
11.1491
10.3659
9.60895
8.87011
8.14354
7.42506
6.7118
6.00182
5.29382
4.58696
3.88072
3.17477
2.46893
1.76313
1.0574
0.35197
35.4325
35.0388
34.5471
33.9829
33.3633
32.6968
31.984
31.218
30.3844
29.4631
28.4307
27.2667
25.9616
24.5254
22.992
21.416
19.8612
18.3835
17.0193
15.7828
14.6697
13.6643
12.7462
11.8947
11.0918
10.3232
9.57793
8.84813
8.12831
7.41475
6.70498
5.99741
5.29105
4.58528
3.87974
3.17423
2.46865
1.763
1.05736
0.351979
35.5759
35.1574
34.6458
34.0684
33.4427
32.777
32.0712
31.3169
30.4977
29.5898
28.5651
27.3979
26.0741
24.6023
23.0204
21.3909
19.7882
18.2759
16.8936
15.6543
14.5497
13.5597
12.6596
11.826
11.0392
10.2841
9.54965
8.82814
8.1145
7.40541
6.6988
5.99343
5.28855
4.58376
3.87885
3.17373
2.4684
1.76289
1.05733
0.352004
35.6783
35.2431
34.7179
34.1316
33.5022
32.8378
32.1379
31.3933
30.5858
29.6891
28.6712
27.5021
26.1639
24.664
23.0429
21.3703
19.7291
18.1895
16.7935
15.5527
14.4557
13.4782
12.5925
11.7731
10.9989
10.2542
9.52809
8.81294
8.10402
7.39834
6.69413
5.99042
5.28666
4.58261
3.87818
3.17336
2.46821
1.76282
1.05732
0.35203
35.7317
35.288
34.7559
34.1652
33.534
32.8706
32.1741
31.435
30.6342
29.7438
28.7301
27.5601
26.2141
24.6985
23.0554
21.3586
19.6959
18.1412
16.7378
15.4966
14.4039
13.4335
12.5559
11.7443
10.977
10.2381
9.51645
8.80475
8.09838
7.39454
6.69163
5.9888
5.28565
4.58199
3.87782
3.17317
2.46812
1.76278
1.05732
0.352048
35.7318
35.2881
34.756
34.1653
33.5341
32.8707
32.1742
31.4351
30.6343
29.7439
28.7301
27.5602
26.2141
24.6985
23.0555
21.3586
19.696
18.1413
16.7379
15.4967
14.404
13.4336
12.556
11.7444
10.9771
10.2381
9.5165
8.8048
8.09842
7.39457
6.69165
5.98882
5.28566
4.582
3.87783
3.17317
2.46812
1.76278
1.05732
0.352049
35.6786
35.2433
34.7181
34.1318
33.5024
32.838
32.1382
31.3936
30.5861
29.6894
28.6715
27.5023
26.164
24.6641
23.043
21.3704
19.7293
18.1898
16.7938
15.5531
14.456
13.4785
12.5928
11.7733
10.9991
10.2544
9.52825
8.81308
8.10413
7.39842
6.6942
5.99047
5.2867
4.58264
3.8782
3.17338
2.46823
1.76282
1.05733
0.352034
35.5762
35.1578
34.6461
34.0688
33.4431
32.7774
32.0716
31.3174
30.4982
29.5903
28.5656
27.3983
26.0743
24.6026
23.0206
21.3911
19.7885
18.2763
16.894
15.6547
14.5502
13.5602
12.6601
11.8264
11.0396
10.2844
9.54991
8.82836
8.11468
7.40555
6.69892
5.99352
5.28861
4.58381
3.87888
3.17376
2.46842
1.7629
1.05734
0.352009
35.433
35.0393
34.5476
33.9834
33.3638
32.6974
31.9846
31.2186
30.3851
29.4638
28.4313
27.2673
25.9621
24.5258
22.9924
21.4163
19.8616
18.384
17.0199
15.7834
14.6703
13.6649
12.7468
11.8952
11.0923
10.3236
9.57828
8.84842
8.12855
7.41494
6.70513
5.99753
5.29114
4.58534
3.87978
3.17426
2.46867
1.76301
1.05737
0.351986
35.2605
34.8989
34.4327
33.8856
33.2745
32.6086
31.8894
31.1117
30.2638
29.3293
28.2897
27.13
25.8451
24.4458
22.9625
21.4414
19.9364
18.4952
17.151
15.9186
14.7976
13.7769
12.84
11.9696
11.1496
10.3664
9.60935
8.87045
8.14381
7.42528
6.71198
6.00196
5.29392
4.58704
3.88078
3.17481
2.46896
1.76314
1.05741
0.351978
35.0733
34.75
34.3134
33.7862
33.1857
32.522
31.7981
31.0106
30.1502
29.2043
28.159
27.0042
25.7381
24.3726
22.9343
21.4627
20.0027
18.5952
17.27
16.0426
14.9153
13.8812
12.9276
12.04
11.204
10.4072
9.63909
8.89158
8.15848
7.43523
6.71857
6.00621
5.29659
4.58866
3.88172
3.17533
2.46923
1.76328
1.05748
0.351997
34.8886
34.6074
34.2023
33.696
33.1072
32.4474
31.721
30.9262
30.0564
29.1018
28.0525
26.902
25.6514
24.3128
22.9105
21.4781
20.0542
18.6743
17.3652
16.1426
15.0111
13.9668
12.9999
12.0983
11.2494
10.4413
9.66402
8.90933
8.17081
7.44358
6.72409
6.00977
5.29882
4.59
3.88249
3.17575
2.46945
1.7634
1.05756
0.35205
34.7256
34.4865
34.1114
33.6248
33.0473
32.3921
31.6651
30.8661
29.9901
29.0297
27.9778
26.8303
25.5904
24.2704
22.8927
21.4874
20.0886
18.728
17.4306
16.2119
15.0779
14.0267
13.0508
12.1396
11.2815
10.4655
9.6817
8.9219
8.17951
7.44946
6.72795
6.01223
5.30033
4.59088
3.88298
3.17601
2.46958
1.76348
1.05764
0.352135
34.6053
34.4029
34.052
33.5807
33.0121
32.3611
31.6348
30.834
29.9549
28.9915
27.9379
26.7919
25.5575
24.2472
22.8825
21.4916
20.1062
18.756
17.4649
16.2484
15.1132
14.0584
13.0776
12.1612
11.2983
10.478
9.69074
8.92823
8.18381
7.45228
6.72974
6.01332
5.30095
4.59122
3.88313
3.17606
2.46959
1.76349
1.05769
0.352232
34.5497
34.3728
34.0357
33.5721
33.0077
32.3588
31.6334
30.8326
29.9531
28.989
27.9349
26.7885
25.5544
24.245
22.8817
21.4925
20.1085
18.7593
17.4686
16.2518
15.116
14.0604
13.0788
12.1617
11.2982
10.4776
9.6901
8.92752
8.1831
7.45164
6.72918
6.01284
5.30057
4.59091
3.88289
3.17587
2.46945
1.7634
1.05765
0.352276
34.6046
34.4022
34.0512
33.5799
33.0113
32.3603
31.6339
30.833
29.9539
28.9904
27.9369
26.7909
25.5565
24.2463
22.8816
21.4908
20.1054
18.7552
17.4641
16.2476
15.1124
14.0577
13.0769
12.1606
11.2977
10.4775
9.69031
8.92787
8.18352
7.45205
6.72956
6.01318
5.30085
4.59115
3.88309
3.17603
2.46957
1.76349
1.05769
0.352231
34.6482
34.4075
34.0377
33.5577
32.9848
32.3311
31.6023
30.7991
29.918
28.9534
27.9002
26.757
25.528
24.2258
22.871
21.4911
20.1162
18.775
17.4906
16.2779
15.1439
14.0882
13.1049
12.1851
11.3185
10.4945
9.70389
8.93845
8.19158
7.45809
6.73401
6.0164
5.30315
4.59277
3.88422
3.17681
2.47012
1.76387
1.05795
0.352305
34.7645
34.4777
34.0791
33.5816
32.9985
32.3392
31.608
30.8042
29.9238
28.9604
27.9084
26.7654
25.5353
24.2305
22.872
21.4879
20.1094
18.7658
17.4806
16.2685
15.1361
14.0825
13.1013
12.1833
11.318
10.4951
9.70501
8.93986
8.19307
7.45951
6.73528
6.01749
5.30405
4.59349
3.88479
3.17726
2.47045
1.76411
1.05807
0.352287
34.9307
34.5921
34.1591
33.6396
33.0433
32.3774
31.6443
30.8421
29.965
29.0051
27.9547
26.8097
25.5727
24.2558
22.8813
21.4797
20.0853
18.7299
17.4379
16.2242
15.0942
14.0455
13.0706
12.159
11.2996
10.4817
9.69568
8.93359
8.18903
7.45703
6.73386
6.01676
5.30375
4.59344
3.88487
3.17739
2.47059
1.76422
1.05813
0.352269
35.1224
34.732
34.2634
33.7204
33.1103
32.4381
31.7047
30.9063
30.0351
29.0807
28.0327
26.8839
25.635
24.2978
22.8966
21.4659
20.0451
18.6699
17.3666
16.1499
15.0234
13.9827
13.0178
12.1167
11.267
10.4574
9.6781
8.92128
8.18066
7.45152
6.73035
6.01462
5.30251
4.59278
3.88456
3.17729
2.47059
1.76425
1.05816
0.352278
35.3178
34.88
34.3779
33.8126
33.1896
32.5125
31.7805
30.988
30.1251
29.1783
28.1336
26.9801
25.7158
24.352
22.9157
21.4469
19.9917
18.5911
17.2736
16.0535
14.9321
13.9017
12.9498
12.062
11.2247
10.4257
9.65511
8.90502
8.16946
7.44401
6.72546
6.01153
5.30064
4.5917
3.88398
3.17701
2.47048
1.76423
1.05817
0.352316
35.4982
35.0202
34.4891
33.9046
33.2709
32.5905
31.8615
31.0765
30.2234
29.2856
28.2452
27.0871
25.806
24.4124
22.9365
21.4246
19.9309
18.5022
17.1697
15.9466
14.8315
13.8131
12.8757
12.0027
11.1789
10.3914
9.63015
8.88732
8.15723
7.43576
6.72004
6.00807
5.29851
4.59044
3.88328
3.17665
2.47032
1.76418
1.05819
0.352376
35.6481
35.1387
34.5849
33.9852
33.3436
32.6615
31.9362
31.1591
30.3159
29.3874
28.3519
27.1901
25.8933
24.471
22.9564
21.4023
19.8711
18.4158
17.0695
15.8445
14.7361
13.7296
12.8062
11.9473
11.1362
10.3595
9.60698
8.8709
8.14586
7.42808
6.71498
6.00483
5.29649
4.58923
3.88259
3.17629
2.47016
1.76413
1.05821
0.352441
35.7552
35.2243
34.6549
34.0451
33.3982
32.7155
31.9936
31.223
30.3881
29.4675
28.4363
27.2722
25.9634
24.5183
22.9723
21.3839
19.8226
18.3462
16.9896
15.7637
14.6611
13.6643
12.7523
11.9044
11.1033
10.335
9.58918
8.85829
8.13714
7.42219
6.71109
6.00233
5.29493
4.5883
3.88206
3.17601
2.47003
1.76409
1.05822
0.352497
35.8109
35.2692
34.6919
34.0769
33.4274
32.7446
32.0247
31.258
30.4278
29.5116
28.4832
27.3181
26.0027
24.545
22.9813
21.3735
19.7952
18.3072
16.9451
15.7189
14.6198
13.6286
12.7228
11.8811
11.0854
10.3217
9.57954
8.85147
8.13243
7.419
6.70899
6.00098
5.29409
4.58779
3.88177
3.17585
2.46996
1.76407
1.05823
0.352528
35.811
35.2693
34.692
34.077
33.4275
32.7447
32.0248
31.258
30.4279
29.5117
28.4833
27.3181
26.0027
24.545
22.9813
21.3735
19.7952
18.3073
16.9452
15.719
14.6199
13.6287
12.7229
11.8812
11.0855
10.3218
9.5796
8.85152
8.13246
7.41903
6.70901
6.00099
5.2941
4.5878
3.88178
3.17586
2.46996
1.76407
1.05823
0.352528
35.7554
35.2246
34.6552
34.0453
33.3984
32.7157
31.9938
31.2233
30.3884
29.4677
28.4366
27.2724
25.9635
24.5184
22.9724
21.384
19.8228
18.3464
16.9899
15.764
14.6614
13.6646
12.7525
11.9047
11.1035
10.3352
9.58934
8.85842
8.13724
7.42227
6.71116
6.00238
5.29497
4.58833
3.88208
3.17602
2.47004
1.76409
1.05822
0.352497
35.6485
35.139
34.5852
33.9856
33.344
32.6619
31.9366
31.1595
30.3164
29.3879
28.3523
27.1904
25.8935
24.4713
22.9566
21.4025
19.8714
18.4161
17.0699
15.8449
14.7365
13.73
12.8066
11.9477
11.1365
10.3598
9.60723
8.8711
8.14603
7.42822
6.71509
6.00491
5.29655
4.58928
3.88263
3.17631
2.47017
1.76414
1.05821
0.352441
35.4987
35.0206
34.4896
33.9051
33.2714
32.5911
31.862
31.0771
30.224
29.2863
28.2458
27.0876
25.8064
24.4128
22.9368
21.425
19.9314
18.5027
17.1702
15.9472
14.8321
13.8136
12.8762
12.0032
11.1793
10.3918
9.63047
8.88759
8.15745
7.43594
6.72018
6.00818
5.29859
4.5905
3.88332
3.17668
2.47034
1.76419
1.05819
0.352375
35.3184
34.8806
34.3785
33.8132
33.1903
32.5132
31.7812
30.9888
30.1259
29.1791
28.1344
26.9808
25.7164
24.3525
22.9162
21.4474
19.9923
18.5917
17.2742
16.0541
14.9327
13.9023
12.9504
12.0626
11.2252
10.4262
9.65548
8.90533
8.16972
7.44422
6.72563
6.01166
5.30074
4.59177
3.88403
3.17704
2.4705
1.76423
1.05817
0.352315
35.1231
34.7327
34.2641
33.7211
33.111
32.4388
31.7055
30.9071
30.0359
29.0816
28.0336
26.8848
25.6358
24.2985
22.8972
21.4666
20.0458
18.6706
17.3673
16.1506
15.0241
13.9834
13.0184
12.1173
11.2675
10.4578
9.67851
8.92162
8.18094
7.45175
6.73053
6.01476
5.30262
4.59285
3.88461
3.17732
2.47061
1.76425
1.05815
0.352277
34.9314
34.5929
34.1599
33.6403
33.0441
32.3782
31.6452
30.843
29.9659
29.006
27.9557
26.8106
25.5736
24.2566
22.8821
21.4805
20.086
18.7306
17.4386
16.2249
15.0949
14.0462
13.0712
12.1596
11.3002
10.4822
9.69611
8.93395
8.18932
7.45727
6.73405
6.01691
5.30386
4.59352
3.88492
3.17743
2.47061
1.76422
1.05812
0.352268
34.7652
34.4785
34.0798
33.5824
32.9993
32.3401
31.6088
30.8052
29.9247
28.9614
27.9094
26.7664
25.5363
24.2314
22.8729
21.4887
20.1101
18.7666
17.4813
16.2693
15.1369
14.0832
13.102
12.1839
11.3186
10.4956
9.70544
8.94022
8.19336
7.45974
6.73546
6.01763
5.30416
4.59356
3.88484
3.17729
2.47047
1.76411
1.05807
0.352285
34.649
34.4083
34.0384
33.5584
32.9856
32.3319
31.6032
30.8001
29.919
28.9544
27.9013
26.758
25.5289
24.2267
22.8719
21.4919
20.117
18.7758
17.4914
16.2787
15.1447
14.0889
13.1056
12.1858
11.319
10.495
9.7043
8.93879
8.19187
7.45832
6.73418
6.01653
5.30325
4.59283
3.88426
3.17684
2.47013
1.76388
1.05794
0.352303
34.6053
34.4029
34.0519
33.5807
33.0121
32.3611
31.6347
30.8339
29.9549
28.9914
27.9379
26.7919
25.5575
24.2472
22.8825
21.4916
20.1062
18.756
17.4649
16.2484
15.1132
14.0584
13.0776
12.1612
11.2982
10.478
9.6907
8.9282
8.18378
7.45226
6.72973
6.0133
5.30094
4.59121
3.88312
3.17605
2.46958
1.76348
1.05768
0.352225
34.7248
34.4858
34.1106
33.624
33.0465
32.3912
31.6642
30.8651
29.989
29.0287
27.9767
26.8292
25.5894
24.2695
22.8918
21.4866
20.0878
18.7272
17.4298
16.2111
15.0772
14.026
13.0501
12.1389
11.2809
10.465
9.68127
8.92154
8.17921
7.44922
6.72776
6.01208
5.30022
4.59081
3.88293
3.17597
2.46956
1.76347
1.05764
0.352131
34.7645
34.4777
34.0791
33.5816
32.9985
32.3392
31.6079
30.8042
29.9237
28.9604
27.9084
26.7654
25.5353
24.2305
22.872
21.4879
20.1094
18.7658
17.4806
16.2686
15.1362
14.0825
13.1013
12.1833
11.318
10.4951
9.70502
8.93987
8.19307
7.45951
6.73528
6.01749
5.30405
4.59349
3.88479
3.17726
2.47045
1.76411
1.05807
0.352287
34.8765
34.539
34.1076
33.5902
32.9952
32.3288
31.5932
30.7871
29.9057
28.9426
27.8918
26.7508
25.5233
24.2212
22.8657
21.4848
20.1099
18.7703
17.4888
16.2801
15.1501
14.0977
13.1167
12.198
11.3314
10.5068
9.71493
8.94803
8.19964
7.46469
6.73929
6.02054
5.30634
4.59519
3.88604
3.17817
2.47111
1.76456
1.05835
0.352318
35.043
34.6489
34.1794
33.6374
33.0274
32.3527
31.6138
30.8077
29.9285
28.9682
27.9195
26.7779
25.5461
24.2356
22.8685
21.4752
20.0896
18.743
17.4589
16.2512
15.1247
14.0772
13.1012
12.1872
11.3244
10.5027
9.71296
8.94746
8.19992
7.46542
6.74022
6.02151
5.30725
4.59599
3.88671
3.17871
2.47153
1.76487
1.05853
0.352348
35.2392
34.7877
34.2789
33.7109
33.0851
32.4026
31.662
30.8585
29.9844
29.0295
27.9836
26.8395
25.5975
24.2687
22.8774
21.458
20.0496
18.6872
17.3956
16.1878
15.0667
14.0275
13.061
12.1561
11.3013
10.4862
9.70165
8.93999
8.19522
7.46264
6.73871
6.02081
5.30704
4.59605
3.88691
3.17896
2.47178
1.76507
1.05867
0.352411
35.4417
34.9369
34.3908
33.7981
33.1578
32.4689
31.7285
30.9301
30.0637
29.1166
28.0748
26.9273
25.671
24.3163
22.8902
21.4335
19.9928
18.6083
17.3064
16.0987
14.9849
13.9571
13.0035
12.111
11.2673
10.4614
9.68404
8.9279
8.18717
7.45747
6.73552
6.01895
5.30604
4.59559
3.88676
3.17898
2.47188
1.7652
1.05878
0.352509
35.63
35.0794
34.501
33.8869
33.2343
32.5409
31.8025
31.011
30.1544
29.2169
28.1808
27.0302
25.7579
24.3728
22.9052
21.404
19.9251
18.5152
17.2024
15.9958
14.8912
13.8769
12.938
12.0597
11.2284
10.4328
9.66366
8.91374
8.1776
7.45118
6.73153
6.01652
5.30463
4.59484
3.88641
3.17887
2.47189
1.76528
1.05888
0.352627
35.7871
35.2005
34.5965
33.9655
33.3037
32.6077
31.8722
31.0883
30.242
29.315
28.2856
27.1331
25.8459
24.4307
22.9206
21.3733
19.8557
18.4212
17.0988
15.8947
14.8002
13.7996
12.8754
12.0108
11.1914
10.4056
9.64418
8.90015
8.16836
7.44506
6.7276
6.01407
5.30318
4.59403
3.88601
3.17871
2.47187
1.76532
1.05897
0.352745
35.8996
35.2882
34.6666
34.0241
33.3561
32.6589
31.9265
31.149
30.3116
29.3937
28.3707
27.218
25.9195
24.4796
22.9337
21.3473
19.7971
18.343
17.014
15.813
14.7275
13.7384
12.8261
11.9724
11.1625
10.3844
9.629
8.88954
8.16113
7.44026
6.7245
6.01214
5.30202
4.59337
3.88566
3.17855
2.47183
1.76535
1.05903
0.35284
35.9583
35.3343
34.7037
34.0554
33.3844
32.6867
31.9561
31.1824
30.3501
29.4376
28.4186
27.2663
25.9619
24.5082
22.9413
21.332
19.7631
18.2981
16.966
15.7672
14.6871
13.7047
12.799
11.9515
11.1467
10.3728
9.62073
8.88377
8.15719
7.43765
6.7228
6.01108
5.30138
4.59301
3.88547
3.17847
2.4718
1.76536
1.05906
0.352893
35.9584
35.3344
34.7037
34.0554
33.3845
32.6868
31.9562
31.1825
30.3502
29.4377
28.4187
27.2663
25.9619
24.5082
22.9414
21.3321
19.7631
18.2982
16.9661
15.7674
14.6872
13.7048
12.7991
11.9515
11.1468
10.3729
9.62078
8.88381
8.15723
7.43767
6.72283
6.01109
5.3014
4.59302
3.88548
3.17847
2.47181
1.76536
1.05906
0.352892
35.8999
35.2885
34.6668
34.0243
33.3564
32.6591
31.9267
31.1493
30.3118
29.3939
28.3709
27.2181
25.9195
24.4797
22.9337
21.3474
19.7973
18.3433
17.0143
15.8133
14.7278
13.7387
12.8263
11.9727
11.1627
10.3846
9.62915
8.88967
8.16123
7.44034
6.72456
6.01219
5.30206
4.5934
3.88568
3.17857
2.47184
1.76535
1.05903
0.352838
35.7875
35.2009
34.5968
33.9659
33.304
32.6081
31.8727
31.0887
30.2425
29.3154
28.286
27.1335
25.8461
24.4308
22.9208
21.3736
19.856
18.4216
17.0993
15.8951
14.8006
13.8
12.8758
12.0111
11.1917
10.4059
9.64442
8.90034
8.16852
7.44519
6.7277
6.01415
5.30325
4.59408
3.88604
3.17873
2.47188
1.76533
1.05897
0.352742
35.6305
35.0799
34.5015
33.8874
33.2348
32.5415
31.803
31.0116
30.155
29.2176
28.1814
27.0307
25.7583
24.3732
22.9056
21.4044
19.9255
18.5157
17.2029
15.9964
14.8918
13.8775
12.9386
12.0602
11.2289
10.4332
9.66397
8.91399
8.17781
7.45135
6.73167
6.01662
5.30471
4.5949
3.88645
3.1789
2.47192
1.76529
1.05888
0.352623
35.4423
34.9375
34.3914
33.7987
33.1584
32.4696
31.7292
30.9308
30.0645
29.1174
28.0756
26.9281
25.6717
24.3169
22.8907
21.434
19.9934
18.6089
17.307
16.0993
14.9856
13.9578
13.0041
12.1115
11.2678
10.4618
9.6844
8.9282
8.18742
7.45767
6.73568
6.01907
5.30613
4.59566
3.88681
3.17902
2.4719
1.76521
1.05878
0.352503
35.2399
34.7884
34.2795
33.7115
33.0858
32.4033
31.6628
30.8594
29.9853
29.0304
27.9845
26.8404
25.5983
24.2695
22.878
21.4586
20.0503
18.6879
17.3963
16.1885
15.0674
14.0282
13.0616
12.1566
11.3018
10.4867
9.70204
8.94033
8.19549
7.46286
6.73888
6.02094
5.30714
4.59612
3.88696
3.17899
2.4718
1.76509
1.05866
0.352405
35.0437
34.6496
34.1802
33.6381
33.0281
32.3535
31.6146
30.8086
29.9294
28.9692
27.9204
26.7789
25.547
24.2364
22.8693
21.4759
20.0904
18.7437
17.4596
16.2519
15.1254
14.0779
13.1019
12.1878
11.325
10.5032
9.71338
8.94781
8.2002
7.46565
6.7404
6.02165
5.30735
4.59606
3.88676
3.17874
2.47155
1.76488
1.05852
0.352342
34.8773
34.5398
34.1084
33.591
32.996
32.3296
31.5941
30.7881
29.9067
28.9436
27.8929
26.7518
25.5242
24.2221
22.8665
21.4856
20.1107
18.7711
17.4896
16.2809
15.1508
14.0984
13.1173
12.1986
11.3319
10.5072
9.71535
8.94838
8.19993
7.46492
6.73946
6.02068
5.30644
4.59526
3.88608
3.17819
2.47112
1.76457
1.05834
0.352311
34.7652
34.4785
34.0798
33.5824
32.9993
32.34
31.6088
30.8052
29.9248
28.9614
27.9094
26.7664
25.5363
24.2314
22.8729
21.4887
20.1102
18.7666
17.4814
16.2693
15.1369
14.0832
13.102
12.1839
11.3186
10.4955
9.70543
8.9402
8.19335
7.45973
6.73545
6.01761
5.30414
4.59355
3.88483
3.17728
2.47046
1.76411
1.05807
0.35228
34.7256
34.4865
34.1113
33.6247
33.0472
32.392
31.665
30.866
29.9901
29.0297
27.9777
26.8303
25.5904
24.2704
22.8927
21.4874
20.0886
18.728
17.4306
16.2119
15.0779
14.0267
13.0508
12.1395
11.2814
10.4654
9.68165
8.92185
8.17946
7.44941
6.72791
6.01219
5.30029
4.59086
3.88296
3.17598
2.46956
1.76346
1.05762
0.35212
34.8879
34.6066
34.2015
33.6952
33.1064
32.4465
31.72
30.9252
30.0553
29.1007
28.0514
26.9009
25.6504
24.3119
22.9096
21.4773
20.0535
18.6735
17.3645
16.1419
15.0104
13.9661
12.9992
12.0977
11.2488
10.4408
9.6636
8.90897
8.17051
7.44335
6.72391
6.00963
5.29871
4.58992
3.88243
3.17571
2.46943
1.76339
1.05755
0.352044
34.9307
34.5921
34.1591
33.6396
33.0433
32.3774
31.6443
30.8421
29.9649
29.005
27.9546
26.8096
25.5726
24.2557
22.8813
21.4797
20.0853
18.7299
17.4379
16.2242
15.0942
14.0455
13.0706
12.1591
11.2997
10.4817
9.6957
8.9336
8.18904
7.45704
6.73387
6.01677
5.30376
4.59344
3.88487
3.17739
2.47059
1.76422
1.05813
0.352269
35.043
34.6489
34.1794
33.6374
33.0274
32.3527
31.6138
30.8077
29.9284
28.9682
27.9194
26.7779
25.546
24.2355
22.8684
21.4752
20.0896
18.743
17.4589
16.2512
15.1247
14.0772
13.1013
12.1872
11.3244
10.5027
9.71298
8.94747
8.19992
7.46543
6.74022
6.02151
5.30725
4.59599
3.88671
3.17871