# vtk DataFile Version 2.0
I need something to put here
ASCII

DATASET STRUCTURED_GRID
DIMENSIONS 41 21 21
POINTS 18081 float
0.000000 0.000000 0.000000
0.100000 0.000000 0.000000
0.200000 0.000000 0.000000
0.300000 0.000000 0.000000
0.400000 0.000000 0.000000
0.500000 0.000000 0.000000
0.600000 0.000000 0.000000
0.700000 0.000000 0.000000
0.800000 0.000000 0.000000
0.900000 0.000000 0.000000
1.000000 0.000000 0.000000
1.100000 0.000000 0.000000
1.200000 0.000000 0.000000
1.300000 0.000000 0.000000
1.400000 0.000000 0.000000
1.500000 0.000000 0.000000
1.600000 0.000000 0.000000
1.700000 0.000000 0.000000
1.800000 0.000000 0.000000
1.900000 0.000000 0.000000
2.000000 0.000000 0.000000
2.100000 0.000000 0.000000
2.200000 0.000000 0.000000
2.300000 0.000000 0.000000
2.400000 0.000000 0.000000
2.500000 0.000000 0.000000
2.600000 0.000000 0.000000
2.700000 0.000000 0.000000
2.800000 0.000000 0.000000
2.900000 0.000000 0.000000
3.000000 0.000000 0.000000
3.100000 0.000000 0.000000
3.200000 0.000000 0.000000
3.300000 0.000000 0.000000
3.400000 0.000000 0.000000
3.500000 0.000000 0.000000
3.600000 0.000000 0.000000
3.700000 0.000000 0.000000
3.800000 0.000000 0.000000
3.900000 0.000000 0.000000
4.000000 0.000000 0.000000
0.000000 0.100000 0.000000
0.100000 0.100000 0.000000
0.200000 0.100000 0.000000
0.300000 0.100000 0.000000
0.400000 0.100000 0.000000
0.500000 0.100000 0.000000
0.600000 0.100000 0.000000
0.700000 0.100000 0.000000
0.800000 0.100000 0.000000
0.900000 0.100000 0.000000
1.000000 0.100000 0.000000
1.100000 0.100000 0.000000
1.200000 0.100000 0.000000
1.300000 0.100000 0.000000
1.400000 0.100000 0.000000
1.500000 0.100000 0.000000
1.600000 0.100000 0.000000
1.700000 0.100000 0.000000
1.800000 0.100000 0.000000
1.900000 0.100000 0.000000
2.000000 0.100000 0.000000
2.100000 0.100000 0.000000
2.200000 0.100000 0.000000
2.300000 0.100000 0.000000
2.400000 0.100000 0.000000
2.500000 0.100000 0.000000
2.600000 0.100000 0.000000
2.700000 0.100000 0.000000
2.800000 0.100000 0.000000
2.900000 0.100000 0.000000
3.000000 0.100000 0.000000
3.100000 0.100000 0.000000
3.200000 0.100000 0.000000
3.300000 0.100000 0.000000
3.400000 0.100000 0.000000
3.500000 0.100000 0.000000
3.600000 0.100000 0.000000
3.700000 0.100000 0.000000
3.800000 0.100000 0.000000
3.900000 0.100000 0.000000
4.000000 0.100000 0.000000
0.000000 0.200000 0.000000
0.100000 0.200000 0.000000
0.200000 0.200000 0.000000
0.300000 0.200000 0.000000
0.400000 0.200000 0.000000
0.500000 0.200000 0.000000
0.600000 0.200000 0.000000
0.700000 0.200000 0.000000
0.800000 0.200000 0.000000
0.900000 0.200000 0.000000
1.000000 0.200000 0.000000
1.100000 0.200000 0.000000
1.200000 0.200000 0.000000
1.300000 0.200000 0.000000
1.400000 0.200000 0.000000
1.500000 0.200000 0.000000
1.600000 0.200000 0.000000
1.700000 0.200000 0.000000
1.800000 0.200000 0.000000
1.900000 0.200000 0.000000
2.000000 0.200000 0.000000
2.100000 0.200000 0.000000
2.200000 0.200000 0.000000
2.300000 0.200000 0.000000
2.400000 0.200000 0.000000
2.500000 0.200000 0.000000
2.600000 0.200000 0.000000
2.700000 0.200000 0.000000
2.800000 0.200000 0.000000
2.900000 0.200000 0.000000
3.000000 0.200000 0.000000
3.100000 0.200000 0.000000
3.200000 0.200000 0.000000
3.300000 0.200000 0.000000
3.400000 0.200000 0.000000
3.500000 0.200000 0.000000
3.600000 0.200000 0.000000
3.700000 0.200000 0.000000
3.800000 0.200000 0.000000
3.900000 0.200000 0.000000
4.000000 0.200000 0.000000
0.000000 0.300000 0.000000
0.100000 0.300000 0.000000
0.200000 0.300000 0.000000
0.300000 0.300000 0.000000
0.400000 0.300000 0.000000
0.500000 0.300000 0.000000
0.600000 0.300000 0.000000
0.700000 0.300000 0.000000
0.800000 0.300000 0.000000
0.900000 0.300000 0.000000
1.000000 0.300000 0.000000
1.100000 0.300000 0.000000
1.200000 0.300000 0.000000
1.300000 0.300000 0.000000
1.400000 0.300000 0.000000
1.500000 0.300000 0.000000
1.600000 0.300000 0.000000
1.700000 0.300000 0.000000
1.800000 0.300000 0.000000
1.900000 0.300000 0.000000
2.000000 0.300000 0.000000
2.100000 0.300000 0.000000
2.200000 0.300000 0.000000
2.300000 0.300000 0.000000
2.400000 0.300000 0.000000
2.500000 0.300000 0.000000
2.600000 0.300000 0.000000
2.700000 0.300000 0.000000
2.800000 0.300000 0.000000
2.900000 0.300000 0.000000
3.000000 0.300000 0.000000
3.100000 0.300000 0.000000
3.200000 0.300000 0.000000
3.300000 0.300000 0.000000
3.400000 0.300000 0.000000
3.500000 0.300000 0.000000
3.600000 0.300000 0.000000
3.700000 0.300000 0.000000
3.800000 0.300000 0.000000
3.900000 0.300000 0.000000
4.000000 0.300000 0.000000
0.000000 0.400000 0.000000
0.100000 0.400000 0.000000
0.200000 0.400000 0.000000
0.300000 0.400000 0.000000
0.400000 0.400000 0.000000
0.500000 0.400000 0.000000
0.600000 0.400000 0.000000
0.700000 0.400000 0.000000
0.800000 0.400000 0.000000
0.900000 0.400000 0.000000
1.000000 0.400000 0.000000
1.100000 0.400000 0.000000
1.200000 0.400000 0.000000
1.300000 0.400000 0.000000
1.400000 0.400000 0.000000
1.500000 0.400000 0.000000
1.600000 0.400000 0.000000
1.700000 0.400000 0.000000
1.800000 0.400000 0.000000
1.900000 0.400000 0.000000
2.000000 0.400000 0.000000
2.100000 0.400000 0.000000
2.200000 0.400000 0.000000
2.300000 0.400000 0.000000
2.400000 0.400000 0.000000
2.500000 0.400000 0.000000
2.600000 0.400000 0.000000
2.700000 0.400000 0.000000
2.800000 0.400000 0.000000
2.900000 0.400000 0.000000
3.000000 0.400000 0.000000
3.100000 0.400000 0.000000
3.200000 0.400000 0.000000
3.300000 0.400000 0.000000
3.400000 0.400000 0.000000
3.500000 0.400000 0.000000
3.600000 0.400000 0.000000
3.700000 0.400000 0.000000
3.800000 0.400000 0.000000
3.900000 0.400000 0.000000
4.000000 0.400000 0.000000
0.000000 0.500000 0.000000
0.100000 0.500000 0.000000
0.200000 0.500000 0.000000
0.300000 0.500000 0.000000
0.400000 0.500000 0.000000
0.500000 0.500000 0.000000
0.600000 0.500000 0.000000
0.700000 0.500000 0.000000
0.800000 0.500000 0.000000
0.900000 0.500000 0.000000
1.000000 0.500000 0.000000
1.100000 0.500000 0.000000
1.200000 0.500000 0.000000
1.300000 0.500000 0.000000
1.400000 0.500000 0.000000
1.500000 0.500000 0.000000
1.600000 0.500000 0.000000
1.700000 0.500000 0.000000
1.800000 0.500000 0.000000
1.900000 0.500000 0.000000
2.000000 0.500000 0.000000
2.100000 0.500000 0.000000
2.200000 0.500000 0.000000
2.300000 0.500000 0.000000
2.400000 0.500000 0.000000
2.500000 0.500000 0.000000
2.600000 0.500000 0.000000
2.700000 0.500000 0.000000
2.800000 0.500000 0.000000
2.900000 0.500000 0.000000
3.000000 0.500000 0.000000
3.100000 0.500000 0.000000
3.200000 0.500000 0.000000
3.300000 0.500000 0.000000
3.400000 0.500000 0.000000
3.500000 0.500000 0.000000
3.600000 0.500000 0.000000
3.700000 0.500000 0.000000
3.800000 0.500000 0.000000
3.900000 0.500000 0.000000
4.000000 0.500000 0.000000
0.000000 0.600000 0.000000
0.100000 0.600000 0.000000
0.200000 0.600000 0.000000
0.300000 0.600000 0.000000
0.400000 0.600000 0.000000
0.500000 0.600000 0.000000
0.600000 0.600000 0.000000
0.700000 0.600000 0.000000
0.800000 0.600000 0.000000
0.900000 0.600000 0.000000
1.000000 0.600000 0.000000
1.100000 0.600000 0.000000
1.200000 0.600000 0.000000
1.300000 0.600000 0.000000
1.400000 0.600000 0.000000
1.500000 0.600000 0.000000
1.600000 0.600000 0.000000
1.700000 0.600000 0.000000
1.800000 0.600000 0.000000
1.900000 0.600000 0.000000
2.000000 0.600000 0.000000
2.100000 0.600000 0.000000
2.200000 0.600000 0.000000
2.300000 0.600000 0.000000
2.400000 0.600000 0.000000
2.500000 0.600000 0.000000
2.600000 0.600000 0.000000
2.700000 0.600000 0.000000
2.800000 0.600000 0.000000
2.900000 0.600000 0.000000
3.000000 0.600000 0.000000
3.100000 0.600000 0.000000
3.200000 0.600000 0.000000
3.300000 0.600000 0.000000
3.400000 0.600000 0.000000
3.500000 0.600000 0.000000
3.600000 0.600000 0.000000
3.700000 0.600000 0.000000
3.800000 0.600000 0.000000
3.900000 0.600000 0.000000
4.000000 0.600000 0.000000
0.000000 0.700000 0.000000
0.100000 0.700000 0.000000
0.200000 0.700000 0.000000
0.300000 0.700000 0.000000
0.400000 0.700000 0.000000
0.500000 0.700000 0.000000
0.600000 0.700000 0.000000
0.700000 0.700000 0.000000
0.800000 0.700000 0.000000
0.900000 0.700000 0.000000
1.000000 0.700000 0.000000
1.100000 0.700000 0.000000
1.200000 0.700000 0.000000
1.300000 0.700000 0.000000
1.400000 0.700000 0.000000
1.500000 0.700000 0.000000
1.600000 0.700000 0.000000
1.700000 0.700000 0.000000
1.800000 0.700000 0.000000
1.900000 0.700000 0.000000
2.000000 0.700000 0.000000
2.100000 0.700000 0.000000
2.200000 0.700000 0.000000
2.300000 0.700000 0.000000
2.400000 0.700000 0.000000
2.500000 0.700000 0.000000
2.600000 0.700000 0.000000
2.700000 0.700000 0.000000
2.800000 0.700000 0.000000
2.900000 0.700000 0.000000
3.000000 0.700000 0.000000
3.100000 0.700000 0.000000
3.200000 0.700000 0.000000
3.300000 0.700000 0.000000
3.400000 0.700000 0.000000
3.500000 0.700000 0.000000
3.600000 0.700000 0.000000
3.700000 0.700000 0.000000
3.800000 0.700000 0.000000
3.900000 0.700000 0.000000
4.000000 0.700000 0.000000
0.000000 0.800000 0.000000
0.100000 0.800000 0.000000
0.200000 0.800000 0.000000
0.300000 0.800000 0.000000
0.400000 0.800000 0.000000
0.500000 0.800000 0.000000
0.600000 0.800000 0.000000
0.700000 0.800000 0.000000
0.800000 0.800000 0.000000
0.900000 0.800000 0.000000
1.000000 0.800000 0.000000
1.100000 0.800000 0.000000
1.200000 0.800000 0.000000
1.300000 0.800000 0.000000
1.400000 0.800000 0.000000
1.500000 0.800000 0.000000
1.600000 0.800000 0.000000
1.700000 0.800000 0.000000
1.800000 0.800000 0.000000
1.900000 0.800000 0.000000
2.000000 0.800000 0.000000
2.100000 0.800000 0.000000
2.200000 0.800000 0.000000
2.300000 0.800000 0.000000
2.400000 0.800000 0.000000
2.500000 0.800000 0.000000
2.600000 0.800000 0.000000
2.700000 0.800000 0.000000
2.800000 0.800000 0.000000
2.900000 0.800000 0.000000
3.000000 0.800000 0.000000
3.100000 0.800000 0.000000
3.200000 0.800000 0.000000
3.300000 0.800000 0.000000
3.400000 0.800000 0.000000
3.500000 0.800000 0.000000
3.600000 0.800000 0.000000
[...]
CELL_DATA 16000
SCALARS pressure float 1
LOOKUP_TABLE default
34.6623
34.4855
34.1484
33.6847
33.1202
32.4709
31.7447
30.9427
30.0611
29.0939
28.0352
26.8827
25.6407
24.3218
22.9478
21.5472
20.152
18.7922
17.4922
16.2679
15.1262
14.0663
13.0818
12.1628
11.2983
10.4771
9.6894
8.92678
8.18243
7.45107
6.72873
6.01251
5.30033
4.59075
3.8828
3.17582
2.46943
1.7634
1.05766
0.352285
34.7179
34.5156
34.1646
33.6933
33.1246
32.4732
31.7461
30.944
30.0629
29.0964
28.0383
26.8862
25.6439
24.3241
22.9486
21.5464
20.1496
18.7888
17.4884
16.2644
15.1233
14.0643
13.0806
12.1624
11.2983
10.4775
9.69003
8.92749
8.18313
7.45171
6.72929
6.01298
5.30071
4.59106
3.88303
3.176
2.46956
1.76349
1.0577
0.352237
34.8382
34.5992
34.2241
33.7374
33.1598
32.5043
31.7766
30.9765
30.0986
29.1353
28.0789
26.9254
25.6776
24.3479
22.9591
21.5421
20.1316
18.7601
17.4533
16.227
15.0873
14.032
13.0533
12.1404
11.2814
10.4649
9.68092
8.92112
8.17881
7.44888
6.72749
6.01189
5.30008
4.59072
3.88288
3.17595
2.46955
1.76347
1.05764
0.352137
35.0013
34.7201
34.315
33.8088
33.2199
32.5598
31.8329
31.0372
30.1658
29.2085
28.1551
26.9986
25.74
24.3914
22.9775
21.5327
20.0965
18.7052
17.3865
16.1562
15.0191
13.9709
13.0016
12.0986
11.2489
10.4405
9.66312
8.90849
8.17008
7.443
6.72364
6.00944
5.29858
4.58984
3.88239
3.1757
2.46942
1.76339
1.05756
0.35205
35.1861
34.8628
34.4263
33.8991
33.2986
32.6348
31.9107
31.1225
30.2609
29.3126
28.2635
27.1029
25.8287
24.4526
23.0021
21.5171
20.0439
18.6245
17.2893
16.0542
14.9216
13.884
12.9283
12.0395
11.2031
10.4061
9.63806
8.89069
8.15774
7.43465
6.71814
6.0059
5.29638
4.58852
3.88163
3.17528
2.46921
1.76327
1.05748
0.351995
35.3734
35.0119
34.5458
33.9987
33.3877
32.7218
32.0027
31.2247
30.3759
29.4395
28.3965
27.2312
25.9379
24.5276
23.0311
21.4957
19.9765
18.5226
17.1679
15.9279
14.8018
13.778
12.8396
11.9685
11.1482
10.3651
9.6082
8.86951
8.14308
7.42473
6.71158
6.00168
5.29373
4.58692
3.8807
3.17477
2.46894
1.76314
1.05741
0.351975
35.5461
35.1525
34.6608
34.0968
33.4774
32.8111
32.0986
31.3326
30.4986
29.5759
28.5404
27.3709
26.0572
24.6093
23.0618
21.4704
19.9005
18.4094
17.0345
15.7904
14.6726
13.6646
12.7453
11.8933
11.0905
10.3221
9.57705
8.84748
8.12785
7.41443
6.70477
5.99729
5.29099
4.58525
3.87973
3.17424
2.46867
1.76302
1.05737
0.351982
35.6895
35.2711
34.7595
34.1823
33.5569
32.8916
32.1862
31.4322
30.6129
29.704
28.6766
27.504
26.1715
24.6876
23.0908
21.445
19.8264
18.3
16.9068
15.66
14.551
13.5587
12.6578
11.8241
11.0376
10.2828
9.54867
8.82746
8.11404
7.40511
6.69863
5.99333
5.2885
4.58375
3.87886
3.17376
2.46842
1.76291
1.05735
0.352004
35.792
35.3568
34.8317
34.2456
33.6165
32.9526
32.2532
31.5091
30.7018
29.8042
28.7839
27.6095
26.2625
24.7502
23.1137
21.4242
19.7665
18.2124
16.8053
15.5572
14.4559
13.4764
12.5901
11.7708
10.997
10.2528
9.52706
8.81225
8.10357
7.39806
6.69398
5.99034
5.28663
4.58261
3.8782
3.17339
2.46824
1.76284
1.05733
0.352028
35.8454
35.4017
34.8697
34.2792
33.6484
32.9854
32.2896
31.551
30.7504
29.8594
28.8433
27.6682
26.3133
24.7851
23.1264
21.4124
19.7329
18.1635
16.749
15.5003
14.4035
13.4313
12.5532
11.7418
10.975
10.2366
9.51541
8.80407
8.09795
7.39428
6.69149
5.98874
5.28563
4.58201
3.87785
3.1732
2.46815
1.7628
1.05733
0.352043
35.8454
35.4018
34.8698
34.2793
33.6484
32.9855
32.2896
31.551
30.7505
29.8595
28.8433
27.6682
26.3133
24.7851
23.1264
21.4124
19.7329
18.1636
16.7491
15.5005
14.4037
13.4315
12.5534
11.7419
10.9751
10.2367
9.5155
8.80414
8.098
7.39433
6.69153
5.98877
5.28566
4.58203
3.87786
3.17321
2.46816
1.76281
1.05733
0.352041
35.7921
35.3569
34.8318
34.2457
33.6166
32.9527
32.2533
31.5092
30.7019
29.8043
28.784
27.6096
26.2625
24.7501
23.1137
21.4242
19.7666
18.2127
16.8056
15.5575
14.4563
13.4768
12.5905
11.7711
10.9973
10.2531
9.52731
8.81245
8.10374
7.3982
6.69409
5.99043
5.2867
4.58266
3.87824
3.17342
2.46826
1.76285
1.05733
0.352023
35.6897
35.2713
34.7597
34.1825
33.5571
32.8918
32.1864
31.4324
30.6131
29.7042
28.6767
27.5041
26.1715
24.6876
23.0908
21.4452
19.8266
18.3004
16.9073
15.6606
14.5517
13.5594
12.6584
11.8247
11.0381
10.2833
9.54906
8.82779
8.11431
7.40533
6.6988
5.99347
5.28861
4.58383
3.87892
3.17379
2.46845
1.76292
1.05735
0.351996
35.5463
35.1527
34.661
34.097
33.4776
32.8114
32.0988
31.3329
30.4989
29.5761
28.5406
27.371
26.0573
24.6094
23.0619
21.4706
19.9009
18.4099
17.0352
15.7912
14.6735
13.6655
12.7461
11.8941
11.0912
10.3227
9.57757
8.84791
8.12821
7.41472
6.70501
5.99747
5.29112
4.58535
3.87981
3.17429
2.4687
1.76303
1.05737
0.351971
35.3736
35.0121
34.546
33.999
33.388
32.7221
32.003
31.225
30.3762
29.4398
28.3967
27.2314
25.938
24.5277
23.0313
21.496
19.977
18.5233
17.1688
15.9289
14.8028
13.779
12.8406
11.9694
11.149
10.3658
9.60882
8.87003
8.14351
7.42507
6.71185
6.00189
5.2939
4.58704
3.88079
3.17483
2.46898
1.76316
1.05741
0.351962
35.1864
34.8631
34.4266
33.8994
33.2989
32.6351
31.911
31.1228
30.2612
29.3129
28.2638
27.1031
25.8288
24.4528
23.0024
21.5176
20.0446
18.6253
17.2903
16.0553
14.9227
13.8851
12.9294
12.0405
11.204
10.4069
9.63874
8.89126
8.15822
7.43503
6.71844
6.00613
5.29655
4.58865
3.88172
3.17534
2.46924
1.76329
1.05748
0.351981
35.0016
34.7204
34.3153
33.809
33.2202
32.5601
31.8332
31.0376
30.1661
29.2088
28.1554
26.9988
25.7402
24.3917
22.9778
21.5333
20.0972
18.7061
17.3875
16.1574
15.0203
13.9721
13.0027
12.0996
11.2498
10.4413
9.66384
8.90909
8.17058
7.4434
6.72396
6.00968
5.29876
4.58997
3.88248
3.17575
2.46946
1.76341
1.05756
0.352036
34.8385
34.5995
34.2244
33.7377
33.1601
32.5046
31.777
30.9768
30.0989
29.1356
28.0792
26.9257
25.6779
24.3482
22.9596
21.5427
20.1323
18.7611
17.4544
16.2281
15.0885
14.0332
13.0545
12.1415
11.2823
10.4657
9.68164
8.92172
8.1793
7.44927
6.7278
6.01212
5.30026
4.59085
3.88297
3.176
2.46958
1.76348
1.05764
0.352124
34.7182
34.5159
34.1649
33.6936
33.1249
32.4735
31.7464
30.9443
30.0632
29.0967
28.0386
26.8865
25.6442
24.3245
22.9491
21.547
20.1503
18.7897
17.4895
16.2655
15.1245
14.0654
13.0817
12.1634
11.2993
10.4783
9.69073
8.92807
8.18361
7.45209
6.72959
6.01321
5.30088
4.59117
3.88311
3.17605
2.46959
1.7635
1.05769
0.352225
34.6626
34.4858
34.1487
33.6851
33.1205
32.4712
31.7451
30.943
30.0615
29.0942
28.0355
26.883
25.641
24.3222
22.9483
21.5478
20.1527
18.7931
17.4932
16.269
15.1273
14.0674
13.0829
12.1638
11.2992
10.4779
9.69008
8.92734
8.18288
7.45143
6.72901
6.01272
5.30049
4.59086
3.88287
3.17587
2.46945
1.76341
1.05766
0.352275
34.7179
34.5156
34.1646
33.6933
33.1246
32.4732
31.7461
30.944
30.0629
29.0964
28.0383
26.8862
25.6439
24.3241
22.9486
21.5464
20.1496
18.7888
17.4885
16.2644
15.1233
14.0643
13.0806
12.1624
11.2983
10.4775
9.69004
8.92749
8.18313
7.45172
6.72929
6.01298
5.30071
4.59106
3.88303
3.176
2.46957
1.76349
1.0577
0.352237
34.7616
34.5209
34.151
33.671
33.0979
32.4438
31.7143
30.9098
30.0266
29.0588
28.0011
26.8517
25.6149
24.3032
22.9379
21.5467
20.1606
18.809
17.5154
16.2952
15.1554
14.0953
13.109
12.1873
11.3194
10.4947
9.70374
8.93815
8.19125
7.45779
6.73376
6.01621
5.30302
4.59268
3.88416
3.17679
2.47011
1.76388
1.05796
0.352312
34.8778
34.5911
34.1924
33.6949
33.1116
32.4519
31.72
30.915
30.0325
29.066
28.0095
26.8604
25.6225
24.3081
22.9389
21.5434
20.1536
18.7996
17.5051
16.2856
15.1473
14.0894
13.1053
12.1854
11.3189
10.4953
9.70489
8.93959
8.19276
7.45922
6.73504
6.01731
5.30392
4.59341
3.88474
3.17723
2.47044
1.76411
1.05808
0.352294
35.044
34.7055
34.2725
33.7529
33.1565
32.4903
31.7566
30.9533
30.0743
29.1114
28.0567
26.9057
25.6607
24.3341
22.9485
21.5351
20.129
18.7627
17.4614
16.2402
15.1045
14.0517
13.0741
12.1608
11.3004
10.4818
9.69551
8.9333
8.18873
7.45676
6.73365
6.0166
5.30364
4.59337
3.88483
3.17738
2.47059
1.76423
1.05814
0.352278
35.2357
34.8454
34.3769
33.8338
33.2236
32.5512
31.8173
31.018
30.1453
29.1883
28.1361
26.9814
25.7244
24.377
22.9641
21.521
20.0879
18.7014
17.3886
16.1643
15.0324
13.9878
13.0205
12.1179
11.2673
10.4573
9.67782
8.92094
8.18034
7.45125
6.73014
6.01447
5.30241
4.59272
3.88453
3.17728
2.47059
1.76426
1.05817
0.352289
35.4312
34.9935
34.4914
33.9261
33.3032
32.626
31.8937
31.1006
30.2364
29.2873
28.2387
27.0794
25.8068
24.4324
22.9837
21.5017
20.0334
18.6209
17.2936
16.066
14.9394
13.9056
12.9515
12.0626
11.2247
10.4254
9.6547
8.90462
8.16913
7.44375
6.72527
6.0114
5.30056
4.59166
3.88397
3.17701
2.4705
1.76425
1.0582
0.35233
35.6118
35.1337
34.6027
34.0182
33.3847
32.7043
31.9752
31.1898
30.3358
29.3961
28.3521
27.1882
25.8986
24.494
23.005
21.4791
19.9715
18.5304
17.1878
15.9573
14.8372
13.8157
12.8765
12.0026
11.1784
10.3909
9.62962
8.88688
8.15688
7.43551
6.71987
6.00796
5.29844
4.59041
3.88328
3.17666
2.47035
1.76421
1.05822
0.352391
35.7617
35.2523
34.6985
34.099
33.4575
32.7756
32.0503
31.273
30.4292
29.4991
28.4602
27.2928
25.9874
24.5537
23.0253
21.4564
19.9107
18.4424
17.0859
15.8535
14.7404
13.7311
12.8063
11.9467
11.1354
10.3588
9.60636
8.87042
8.14551
7.42784
6.71483
6.00474
5.29645
4.58922
3.88261
3.17632
2.4702
1.76417
1.05824
0.352458
35.8688
35.338
34.7687
34.1589
33.5122
32.8297
32.108
31.3374
30.502
29.5799
28.5456
27.376
26.0585
24.6017
23.0415
21.4378
19.8615
18.3719
17.0049
15.7716
14.6645
13.6651
12.7518
11.9035
11.1023
10.3342
9.5885
8.85779
8.13679
7.42196
6.71095
6.00226
5.29491
4.5883
3.88209
3.17604
2.47007
1.76414
1.05826
0.352514
35.9246
35.3829
34.8057
34.1907
33.5415
32.8589
32.1393
31.3725
30.5419
29.6244
28.5929
27.4223
26.0983
24.6287
23.0506
21.4273
19.8338
18.3324
16.9598
15.7264
14.6228
13.6291
12.7221
11.88
11.0843
10.3208
9.57885
8.85098
8.13209
7.41879
6.70887
6.00092
5.29408
4.58781
3.88181
3.1759
2.47001
1.76412
1.05828
0.352545
35.9246
35.3829
34.8057
34.1908
33.5415
32.859
32.1393
31.3726
30.542
29.6244
28.5929
27.4223
26.0983
24.6287
23.0506
21.4273
19.8338
18.3325
16.9599
15.7265
14.6229
13.6292
12.7222
11.8801
11.0844
10.3209
9.57892
8.85104
8.13215
7.41884
6.70891
6.00095
5.2941
4.58782
3.88182
3.17591
2.47001
1.76413
1.05828
0.352545
35.8689
35.3381
34.7688
34.159
33.5123
32.8298
32.1081
31.3375
30.5021
29.58
28.5457
27.376
26.0585
24.6017
23.0416
21.4379
19.8616
18.3721
17.0052
15.772
14.6648
13.6655
12.7522
11.9038
11.1026
10.3344
9.58873
8.85799
8.13695
7.42209
6.71106
6.00234
5.29497
4.58835
3.88212
3.17607
2.47009
1.76415
1.05827
0.352512
35.7619
35.2525
34.6987
34.0992
33.4577
32.7757
32.0505
31.2732
30.4294
29.4992
28.4603
27.2928
25.9874
24.5537
23.0254
21.4566
19.911
18.4428
17.0864
15.8541
14.7409
13.7317
12.8069
11.9472
11.1359
10.3592
9.60672
8.87073
8.14577
7.42805
6.71499
6.00487
5.29655
4.5893
3.88266
3.17636
2.47022
1.76419
1.05826
0.352454
35.612
35.1339
34.6029
34.0184
33.3849
32.7045
31.9754
31.1901
30.336
29.3963
28.3523
27.1884
25.8987
24.4941
23.0052
21.4793
19.9719
18.5309
17.1884
15.958
14.8379
13.8164
12.8773
12.0033
11.179
10.3914
9.6301
8.88728
8.15722
7.43578
6.72009
6.00814
5.29858
4.59051
3.88335
3.17672
2.47038
1.76424
1.05823
0.352386
35.4315
34.9937
34.4916
33.9264
33.3034
32.6262
31.894
31.1009
30.2367
29.2876
28.239
27.0796
25.807
24.4326
22.984
21.502
20.0339
18.6216
17.2944
16.0669
14.9403
13.9065
12.9524
12.0634
11.2254
10.4261
9.65527
8.90511
8.16953
7.44408
6.72553
6.01161
5.30072
4.59177
3.88405
3.17707
2.47054
1.76428
1.05821
0.352324
35.236
34.8457
34.3771
33.8341
33.2239
32.5515
31.8177
31.0184
30.1456
29.1886
28.1364
26.9816
25.7246
24.3772
22.9645
21.5215
20.0885
18.7022
17.3894
16.1653
15.0334
13.9889
13.0215
12.1188
11.2682
10.458
9.67846
8.92148
8.18079
7.45161
6.73043
6.01469
5.30258
4.59285
3.88462
3.17734
2.47063
1.76429
1.05819
0.352282
35.0443
34.7058
34.2728
33.7532
33.1568
32.4906
31.7569
30.9536
30.0746
29.1117
28.057
26.9059
25.661
24.3344
22.9489
21.5356
20.1297
18.7636
17.4624
16.2412
15.1056
14.0528
13.0751
12.1618
11.3012
10.4826
9.69618
8.93387
8.18919
7.45714
6.73395
6.01683
5.30382
4.5935
3.88492
3.17744
2.47063
1.76425
1.05815
0.35227
34.8781
34.5914
34.1927
33.6952
33.112
32.4523
31.7203
30.9153
30.0328
29.0663
28.0098
26.8607
25.6228
24.3085
22.9394
21.544
20.1543
18.8004
17.5061
16.2866
15.1485
14.0905
13.1064
12.1864
11.3198
10.4961
9.70558
8.94017
8.19324
7.45961
6.73534
6.01754
5.3041
4.59353
3.88482
3.17729
2.47048
1.76413
1.05809
0.352285
34.7619
34.5212
34.1513
33.6713
33.0983
32.4441
31.7147
30.9102
30.0269
29.0591
28.0015
26.852
25.6152
24.3036
22.9383
21.5473
20.1614
18.8099
17.5164
16.2963
15.1565
14.0964
13.1101
12.1883
11.3203
10.4955
9.70441
8.93871
8.19171
7.45816
6.73405
6.01643
5.30318
4.59279
3.88424
3.17683
2.47014
1.76389
1.05796
0.352302
34.7182
34.5159
34.1649
33.6936
33.1249
32.4735
31.7464
30.9444
30.0633
29.0967
28.0387
26.8865
25.6442
24.3245
22.9491
21.5469
20.1503
18.7897
17.4895
16.2654
15.1244
14.0654
13.0817
12.1633
11.2992
10.4783
9.69068
8.92803
8.18357
7.45206
6.72956
6.01318
5.30086
4.59116
3.8831
3.17604
2.46958
1.76349
1.05769
0.352225
34.8382
34.5992
34.2241
33.7374
33.1598
32.5042
31.7766
30.9764
30.0986
29.1352
28.0789
26.9253
25.6775
24.3479
22.9591
21.5421
20.1316
18.7601
17.4533
16.227
15.0873
14.032
13.0534
12.1404
11.2814
10.4649
9.68094
8.92113
8.17882
7.44888
6.7275
6.01189
5.30009
4.59072
3.88288
3.17595
2.46955
1.76347
1.05764
0.352138
34.8778
34.5911
34.1924
33.6949
33.1116
32.4519
31.7199
30.9149
30.0325
29.066
28.0095
26.8604
25.6224
24.3081
22.9389
21.5434
20.1536
18.7996
17.5051
16.2856
15.1474
14.0894
13.1053
12.1854
11.3189
10.4953
9.7049
8.9396
8.19277
7.45923
6.73504
6.01731
5.30392
4.59341
3.88474
3.17723
2.47044
1.76411
1.05808
0.352294
34.9898
34.6524
34.2209
33.7035
33.1083
32.4414
31.7051
30.8977
30.0143
29.048
27.9928
26.8457
25.6103
24.2988
22.9325
21.5402
20.1541
18.804
17.5134
16.2972
15.1614
14.1048
13.1209
12.2003
11.3324
10.5071
9.71491
8.94784
8.19939
7.46444
6.73908
6.02037
5.30622
4.59511
3.88598
3.17813
2.47109
1.76456
1.05835
0.352324
35.1562
34.7622
34.2928
33.7507
33.1404
32.4654
31.7258
30.9186
30.0374
29.0742
28.0211
26.8736
25.6338
24.3135
22.9354
21.5304
20.1333
18.7759
17.4826
16.2675
15.1354
14.0838
13.1051
12.1893
11.3254
10.503
9.71296
8.94729
8.19969
7.4652
6.74003
6.02136
5.30714
4.59592
3.88666
3.17869
2.47152
1.76487
1.05853
0.352355
35.3525
34.9011
34.3922
33.8242
33.1983
32.5155
31.7743
30.9699
30.0941
29.1365
28.0865
26.9366
25.6865
24.3476
22.9446
21.5128
20.0923
18.7187
17.4177
16.2026
15.0762
14.0332
13.0642
12.1577
11.3021
10.4864
9.70158
8.93981
8.195
7.46243
6.73854
6.02067
5.30694
4.59599
3.88687
3.17894
2.47176
1.76507
1.05867
0.352418
35.5551
35.0503
34.5043
33.9115
33.2711
32.5821
31.8413
31.0421
30.1745
29.225
28.1795
27.0262
25.7617
24.3964
22.9578
21.4879
20.0342
18.6379
17.3264
16.1116
14.9928
13.9617
13.0059
12.1121
11.2677
10.4614
9.68388
8.92768
8.18695
7.45728
6.73537
6.01884
5.30597
4.59554
3.88673
3.17897
2.47187
1.7652
1.05879
0.352516
35.7435
35.1929
34.6145
34.0004
33.3478
32.6544
31.9157
31.1238
30.2662
29.3268
28.2873
27.1311
25.8503
24.4541
22.9733
21.4579
19.9651
18.5429
17.2202
16.0067
14.8975
13.8802
12.9396
12.0603
11.2285
10.4327
9.66341
8.91348
8.17737
7.451
6.7314
6.01642
5.30457
4.5948
3.8864
3.17887
2.47189
1.76528
1.05889
0.352636
35.9007
35.3141
34.71
34.0791
33.4173
32.7214
31.9859
31.2016
30.3547
29.4261
28.3935
27.2357
25.9399
24.513
22.989
21.4268
19.8945
18.4471
17.1148
15.9039
14.8051
13.8019
12.8763
12.0109
11.1912
10.4053
9.64386
8.89987
8.16813
7.4449
6.72749
6.014
5.30315
4.59401
3.886
3.17871
2.47187
1.76532
1.05898
0.352754
36.0133
35.4018
34.7802
34.1378
33.4699
32.7728
32.0404
31.2628
30.4247
29.5054
28.4795
27.3215
26.0145
24.5627
23.0023
21.4004
19.8351
18.3678
17.0289
15.8212
14.7315
13.7402
12.8265
11.9723
11.1622
10.384
9.62864
8.88925
8.16091
7.44011
6.7244
6.01208
5.302
4.59337
3.88567
3.17856
2.47183
1.76535
1.05905
0.35285
36.0719
35.4479
34.8173
34.169
33.4982
32.8006
32.0701
31.2963
30.4635
29.5496
28.5278
27.3702
26.0573
24.5916
23.0101
21.3851
19.8008
18.3225
16.9804
15.775
14.6908
13.7061
12.7993
11.9512
11.1463
10.3724
9.62036
8.88349
8.15699
7.43751
6.72273
6.01104
5.30137
4.59301
3.88549
3.17848
2.47181
1.76537
1.05908
0.352903
36.072
35.4479
34.8173
34.1691
33.4982
32.8006
32.0701
31.2964
30.4635
29.5497
28.5279
27.3702
26.0573
24.5915
23.0101
21.3851
19.8008
18.3226
16.9805
15.7751
14.6909
13.7063
12.7994
11.9513
11.1464
10.3725
9.62044
8.88355
8.15704
7.43756
6.72276
6.01106
5.30139
4.59303
3.8855
3.17849
2.47182
1.76537
1.05908
0.352902
36.0134
35.4019
34.7803
34.1379
33.47
32.7729
32.0405
31.2629
30.4248
29.5055
28.4796
27.3215
26.0144
24.5626
23.0023
21.4005
19.8353
18.3681
17.0292
15.8216
14.7319
13.7405
12.8269
11.9726
11.1625
10.3843
9.62886
8.88944
8.16107
7.44024
6.7245
6.01216
5.30206
4.59341
3.8857
3.17859
2.47185
1.76536
1.05905
0.352848
35.9009
35.3142
34.7102
34.0793
33.4175
32.7215
31.986
31.2018
30.3548
29.4262
28.3937
27.2358
25.9399
24.513
22.9891
21.427
19.8947
18.4475
17.1153
15.9045
14.8057
13.8025
12.8768
12.0114
11.1917
10.4057
9.64421
8.90016
8.16838
7.4451
6.72765
6.01413
5.30324
4.59409
3.88606
3.17874
2.47189
1.76534
1.05899
0.352752
35.7437
35.1931
34.6147
34.0006
33.348
32.6546
31.916
31.124
30.2665
29.3271
28.2875
27.1312
25.8504
24.4542
22.9735
21.4581
19.9654
18.5434
17.2209
16.0074
14.8982
13.881
12.9404
12.061
11.2291
10.4332
9.66387
8.91387
8.1777
7.45127
6.73161
6.01659
5.3047
4.5949
3.88647
3.17891
2.47192
1.76529
1.0589
0.352632
35.5554
35.0506
34.5045
33.9118
33.2714
32.5823
31.8415
31.0424
30.1748
29.2254
28.1798
27.0265
25.7619
24.3966
22.9581
21.4883
20.0347
18.6386
17.3272
16.1124
14.9937
13.9626
13.0068
12.1129
11.2684
10.462
9.68443
8.92815
8.18734
7.45759
6.73562
6.01904
5.30612
4.59565
3.88681
3.17902
2.47191
1.76522
1.0588
0.352511
35.3528
34.9014
34.3925
33.8244
33.1985
32.5158
31.7746
30.9702
30.0944
29.1369
28.0869
26.9369
25.6867
24.3479
22.9449
21.5133
20.0929
18.7195
17.4186
16.2036
15.0772
14.0342
13.0652
12.1586
11.3029
10.4871
9.70219
8.94033
8.19543
7.46279
6.73882
6.02089
5.30711
4.59611
3.88696
3.179
2.4718
1.76509
1.05868
0.352412
35.1565
34.7625
34.2931
33.7509
33.1407
32.4657
31.7261
30.9189
30.0378
29.0746
28.0215
26.8739
25.6341
24.3139
22.9358
21.5309
20.1339
18.7768
17.4835
16.2685
15.1365
14.0849
13.1062
12.1902
11.3263
10.5038
9.71361
8.94784
8.20015
7.46557
6.74032
6.02159
5.30731
4.59604
3.88675
3.17874
2.47155
1.76488
1.05854
0.352348
34.9901
34.6527
34.2212
33.7038
33.1086
32.4417
31.7054
30.8981
30.0146
29.0484
27.9931
26.846
25.6106
24.2991
22.9329
21.5408
20.1548
18.8048
17.5144
16.2983
15.1626
14.1059
13.1219
12.2012
11.3333
10.5079
9.71558
8.9484
8.19985
7.46481
6.73937
6.0206
5.30639
4.59523
3.88606
3.17819
2.47112
1.76457
1.05835
0.352315
34.8781
34.5914
34.1927
33.6952
33.112
32.4523
31.7203
30.9153
30.0328
29.0663
28.0098
26.8607
25.6227
24.3085
22.9394
21.544
20.1543
18.8005
17.5062
16.2867
15.1485
14.0906
13.1064
12.1864
11.3198
10.4961
9.70556
8.94015
8.19321
7.45958
6.73532
6.01752
5.30408
4.59351
3.88481
3.17727
2.47046
1.76411
1.05808
0.352283
34.8385
34.5995
34.2244
33.7377
33.1601
32.5046
31.777
30.9768
30.0989
29.1356
28.0792
26.9257
25.6778
24.3482
22.9595
21.5427
20.1323
18.7611
17.4544
16.2281
15.0884
14.0331
13.0544
12.1414
11.2822
10.4656
9.68156
8.92164
8.17923
7.44921
6.72774
6.01207
5.30022
4.59081
3.88293
3.17598
2.46956
1.76346
1.05763
0.352122
35.0013
34.7201
34.315
33.8087
33.2199
32.5598
31.8329
31.0372
30.1657
29.2084
28.155
26.9984
25.7398
24.3913
22.9774
21.5327
20.0965
18.7053
17.3865
16.1563
15.0192
13.971
13.0017
12.0987
11.2489
10.4405
9.66315
8.90851
8.1701
7.44301
6.72365
6.00944
5.29859
4.58984
3.88239
3.1757
2.46942
1.76339
1.05756
0.352051
35.044
34.7055
34.2725
33.7529
33.1565
32.4903
31.7566
30.9532
30.0742
29.1113
28.0566
26.9056
25.6606
24.334
22.9484
21.535
20.129
18.7628
17.4615
16.2402
15.1045
14.0518
13.0741
12.1608
11.3004
10.4819
9.69553
8.93332
8.18874
7.45677
6.73365
6.0166
5.30364
4.59337
3.88483
3.17738
2.47059
1.76423
1.05814
0.352278
35.1562
34.7622
34.2928
33.7506
33.1404
32.4653
31.7258
30.9185
30.0374
29.0742
28.0211
26.8735
25.6337
24.3135
22.9354
21.5304
20.1332
18.7759
17.4826
16.2675
15.1355
14.0839
13.1052
12.1893
11.3254
10.5031
9.71297
8.94729
8.1997
7.46521
6.74003
6.02136