# vtk DataFile Version 2.0
I need something to put here
ASCII

DATASET STRUCTURED_GRID
DIMENSIONS 14 20 40
POINTS 11200 float
0.000000 0.500000 0.000000
0.025000 0.500000 0.000000
0.050000 0.500000 0.000000
0.075000 0.500000 0.000000
0.100000 0.500000 0.000000
0.125000 0.500000 0.000000
0.150000 0.500000 0.000000
0.175000 0.500000 0.000000
0.200000 0.500000 0.000000
0.225000 0.500000 0.000000
0.250000 0.500000 0.000000
0.275000 0.500000 0.000000
0.300000 0.500000 0.000000
0.325000 0.500000 0.000000
0.000000 0.525000 0.000000
0.025000 0.525000 0.000000
0.050000 0.525000 0.000000
0.075000 0.525000 0.000000
0.100000 0.525000 0.000000
0.125000 0.525000 0.000000
0.150000 0.525000 0.000000
0.175000 0.525000 0.000000
0.200000 0.525000 0.000000
0.225000 0.525000 0.000000
0.250000 0.525000 0.000000
0.275000 0.525000 0.000000
0.300000 0.525000 0.000000
0.325000 0.525000 0.000000
0.000000 0.550000 0.000000
0.025000 0.550000 0.000000
0.050000 0.550000 0.000000
0.075000 0.550000 0.000000
0.100000 0.550000 0.000000
0.125000 0.550000 0.000000
0.150000 0.550000 0.000000
0.175000 0.550000 0.000000
0.200000 0.550000 0.000000
0.225000 0.550000 0.000000
0.250000 0.550000 0.000000
0.275000 0.550000 0.000000
0.300000 0.550000 0.000000
0.325000 0.550000 0.000000
0.000000 0.575000 0.000000
0.025000 0.575000 0.000000
0.050000 0.575000 0.000000
0.075000 0.575000 0.000000
0.100000 0.575000 0.000000
0.125000 0.575000 0.000000
0.150000 0.575000 0.000000
0.175000 0.575000 0.000000
0.200000 0.575000 0.000000
0.225000 0.575000 0.000000
0.250000 0.575000 0.000000
0.275000 0.575000 0.000000
0.300000 0.575000 0.000000
0.325000 0.575000 0.000000
0.000000 0.600000 0.000000
0.025000 0.600000 0.000000
0.050000 0.600000 0.000000
0.075000 0.600000 0.000000
0.100000 0.600000 0.000000
0.125000 0.600000 0.000000
0.150000 0.600000 0.000000
0.175000 0.600000 0.000000
0.200000 0.600000 0.000000
0.225000 0.600000 0.000000
0.250000 0.600000 0.000000
0.275000 0.600000 0.000000
0.300000 0.600000 0.000000
0.325000 0.600000 0.000000
0.000000 0.625000 0.000000
0.025000 0.625000 0.000000
0.050000 0.625000 0.000000
0.075000 0.625000 0.000000
0.100000 0.625000 0.000000
0.125000 0.625000 0.000000
0.150000 0.625000 0.000000
0.175000 0.625000 0.000000
0.200000 0.625000 0.000000
0.225000 0.625000 0.000000
0.250000 0.625000 0.000000
0.275000 0.625000 0.000000
0.300000 0.625000 0.000000
0.325000 0.625000 0.000000
0.000000 0.650000 0.000000
0.025000 0.650000 0.000000
0.050000 0.650000 0.000000
0.075000 0.650000 0.000000
0.100000 0.650000 0.000000
0.125000 0.650000 0.000000
0.150000 0.650000 0.000000
0.175000 0.650000 0.000000
0.200000 0.650000 0.000000
0.225000 0.650000 0.000000
0.250000 0.650000 0.000000
0.275000 0.650000 0.000000
0.300000 0.650000 0.000000
0.325000 0.650000 0.000000
0.000000 0.675000 0.000000
0.025000 0.675000 0.000000
0.050000 0.675000 0.000000
0.075000 0.675000 0.000000
0.100000 0.675000 0.000000
0.125000 0.675000 0.000000
0.150000 0.675000 0.000000
0.175000 0.675000 0.000000
0.200000 0.675000 0.000000
0.225000 0.675000 0.000000
0.250000 0.675000 0.000000
0.275000 0.675000 0.000000
0.300000 0.675000 0.000000
0.325000 0.675000 0.000000
0.000000 0.700000 0.000000
0.025000 0.700000 0.000000
0.050000 0.700000 0.000000
0.075000 0.700000 0.000000
0.100000 0.700000 0.000000
0.125000 0.700000 0.000000
0.150000 0.700000 0.000000
0.175000 0.700000 0.000000
0.200000 0.700000 0.000000
0.225000 0.700000 0.000000
0.250000 0.700000 0.000000
0.275000 0.700000 0.000000
0.300000 0.700000 0.000000
0.325000 0.700000 0.000000
0.000000 0.725000 0.000000
0.025000 0.725000 0.000000
0.050000 0.725000 0.000000
0.075000 0.725000 0.000000
0.100000 0.725000 0.000000
0.125000 0.725000 0.000000
0.150000 0.725000 0.000000
0.175000 0.725000 0.000000
0.200000 0.725000 0.000000
0.225000 0.725000 0.000000
0.250000 0.725000 0.000000
0.275000 0.725000 0.000000
0.300000 0.725000 0.000000
0.325000 0.725000 0.000000
0.000000 0.750000 0.000000
0.025000 0.750000 0.000000
0.050000 0.750000 0.000000
0.075000 0.750000 0.000000
0.100000 0.750000 0.000000
0.125000 0.750000 0.000000
0.150000 0.750000 0.000000
0.175000 0.750000 0.000000
0.200000 0.750000 0.000000
0.225000 0.750000 0.000000
0.250000 0.750000 0.000000
0.275000 0.750000 0.000000
0.300000 0.750000 0.000000
0.325000 0.750000 0.000000
0.000000 0.775000 0.000000
0.025000 0.775000 0.000000
0.050000 0.775000 0.000000
0.075000 0.775000 0.000000
0.100000 0.775000 0.000000
0.125000 0.775000 0.000000
0.150000 0.775000 0.000000
0.175000 0.775000 0.000000
0.200000 0.775000 0.000000
0.225000 0.775000 0.000000
0.250000 0.775000 0.000000
0.275000 0.775000 0.000000
0.300000 0.775000 0.000000
0.325000 0.775000 0.000000
0.000000 0.800000 0.000000
0.025000 0.800000 0.000000
0.050000 0.800000 0.000000
0.075000 0.800000 0.000000
0.100000 0.800000 0.000000
0.125000 0.800000 0.000000
0.150000 0.800000 0.000000
0.175000 0.800000 0.000000
0.200000 0.800000 0.000000
0.225000 0.800000 0.000000
0.250000 0.800000 0.000000
0.275000 0.800000 0.000000
0.300000 0.800000 0.000000
0.325000 0.800000 0.000000
0.000000 0.825000 0.000000
0.025000 0.825000 0.000000
0.050000 0.825000 0.000000
0.075000 0.825000 0.000000
0.100000 0.825000 0.000000
0.125000 0.825000 0.000000
0.150000 0.825000 0.000000
0.175000 0.825000 0.000000
0.200000 0.825000 0.000000
0.225000 0.825000 0.000000
0.250000 0.825000 0.000000
0.275000 0.825000 0.000000
0.300000 0.825000 0.000000
0.325000 0.825000 0.000000
0.000000 0.850000 0.000000
0.025000 0.850000 0.000000
0.050000 0.850000 0.000000
0.075000 0.850000 0.000000
0.100000 0.850000 0.000000
0.125000 0.850000 0.000000
0.150000 0.850000 0.000000
0.175000 0.850000 0.000000
0.200000 0.850000 0.000000
0.225000 0.850000 0.000000
0.250000 0.850000 0.000000
0.275000 0.850000 0.000000
0.300000 0.850000 0.000000
0.325000 0.850000 0.000000
0.000000 0.875000 0.000000
0.025000 0.875000 0.000000
0.050000 0.875000 0.000000
0.075000 0.875000 0.000000
0.100000 0.875000 0.000000
0.125000 0.875000 0.000000
0.150000 0.875000 0.000000
0.175000 0.875000 0.000000
0.200000 0.875000 0.000000
0.225000 0.875000 0.000000
0.250000 0.875000 0.000000
0.275000 0.875000 0.000000
0.300000 0.875000 0.000000
0.325000 0.875000 0.000000
0.000000 0.900000 0.000000
0.025000 0.900000 0.000000
0.050000 0.900000 0.000000
0.075000 0.900000 0.000000
0.100000 0.900000 0.000000
0.125000 0.900000 0.000000
0.150000 0.900000 0.000000
0.175000 0.900000 0.000000
0.200000 0.900000 0.000000
0.225000 0.900000 0.000000
0.250000 0.900000 0.000000
0.275000 0.900000 0.000000
0.300000 0.900000 0.000000
0.325000 0.900000 0.000000
0.000000 0.925000 0.000000
0.025000 0.925000 0.000000
0.050000 0.925000 0.000000
0.075000 0.925000 0.000000
0.100000 0.925000 0.000000
0.125000 0.925000 0.000000
0.150000 0.925000 0.000000
0.175000 0.925000 0.000000
0.200000 0.925000 0.000000
0.225000 0.925000 0.000000
0.250000 0.925000 0.000000
0.275000 0.925000 0.000000
0.300000 0.925000 0.000000
0.325000 0.925000 0.000000
0.000000 0.950000 0.000000
0.025000 0.950000 0.000000
0.050000 0.950000 0.000000
0.075000 0.950000 0.000000
0.100000 0.950000 0.000000
0.125000 0.950000 0.000000
0.150000 0.950000 0.000000
0.175000 0.950000 0.000000
0.200000 0.950000 0.000000
0.225000 0.950000 0.000000
0.250000 0.950000 0.000000
0.275000 0.950000 0.000000
0.300000 0.950000 0.000000
0.325000 0.950000 0.000000
0.000000 0.975000 0.000000
0.025000 0.975000 0.000000
0.050000 0.975000 0.000000
0.075000 0.975000 0.000000
0.100000 0.975000 0.000000
0.125000 0.975000 0.000000
0.150000 0.975000 0.000000
0.175000 0.975000 0.000000
0.200000 0.975000 0.000000
0.225000 0.975000 0.000000
0.250000 0.975000 0.000000
0.275000 0.975000 0.000000
0.300000 0.975000 0.000000
0.325000 0.975000 0.000000
0.000000 0.500000 0.025000
0.025000 0.500000 0.025000
0.050000 0.500000 0.025000
0.075000 0.500000 0.025000
0.100000 0.500000 0.025000
0.125000 0.500000 0.025000
0.150000 0.500000 0.025000
0.175000 0.500000 0.025000
0.200000 0.500000 0.025000
0.225000 0.500000 0.025000
0.250000 0.500000 0.025000
0.275000 0.500000 0.025000
0.300000 0.500000 0.025000
0.325000 0.500000 0.025000
0.000000 0.525000 0.025000
0.025000 0.525000 0.025000
0.050000 0.525000 0.025000
0.075000 0.525000 0.025000
0.100000 0.525000 0.025000
0.125000 0.525000 0.025000
0.150000 0.525000 0.025000
0.175000 0.525000 0.025000
0.200000 0.525000 0.025000
0.225000 0.525000 0.025000
0.250000 0.525000 0.025000
0.275000 0.525000 0.025000
0.300000 0.525000 0.025000
0.325000 0.525000 0.025000
0.000000 0.550000 0.025000
0.025000 0.550000 0.025000
0.050000 0.550000 0.025000
0.075000 0.550000 0.025000
0.100000 0.550000 0.025000
0.125000 0.550000 0.025000
0.150000 0.550000 0.025000
0.175000 0.550000 0.025000
0.200000 0.550000 0.025000
0.225000 0.550000 0.025000
0.250000 0.550000 0.025000
0.275000 0.550000 0.025000
0.300000 0.550000 0.025000
0.325000 0.550000 0.025000
0.000000 0.575000 0.025000
0.025000 0.575000 0.025000
0.050000 0.575000 0.025000
0.075000 0.575000 0.025000
0.100000 0.575000 0.025000
0.125000 0.575000 0.025000
0.150000 0.575000 0.025000
0.175000 0.575000 0.025000
0.200000 0.575000 0.025000
0.225000 0.575000 0.025000
0.250000 0.575000 0.025000
0.275000 0.575000 0.025000
0.300000 0.575000 0.025000
0.325000 0.575000 0.025000
0.000000 0.600000 0.025000
0.025000 0.600000 0.025000
0.050000 0.600000 0.025000
0.075000 0.600000 0.025000
0.100000 0.600000 0.025000
0.125000 0.600000 0.025000
0.150000 0.600000 0.025000
0.175000 0.600000 0.025000
0.200000 0.600000 0.025000
0.225000 0.600000 0.025000
0.250000 0.600000 0.025000
0.275000 0.600000 0.025000
0.300000 0.600000 0.025000
0.325000 0.600000 0.025000
0.000000 0.625000 0.025000
0.025000 0.625000 0.025000
0.050000 0.625000 0.025000
0.075000 0.625000 0.025000
0.100000 0.625000 0.025000
0.125000 0.625000 0.025000
0.150000 0.625000 0.025000
0.175000 0.625000 0.025000
0.200000 0.625000 0.025000
0.225000 0.625000 0.025000
0.250000 0.625000 0.025000
0.275000 0.625000 0.025000
0.300000 0.625000 0.025000
0.325000 0.625000 0.025000
0.000000 0.650000 0.025000
[...]
CELL_DATA 9633
SCALARS density float 1
LOOKUP_TABLE default
0.99943
0.999427
0.999419
0.999416
0.999416
0.999417
0.999416
0.999415
0.999415
0.99942
0.999432
0.999452
0.999481
0.999409
0.999407
0.999406
0.999408
0.999411
0.999413
0.999412
0.99941
0.999412
0.999418
0.999432
0.999452
0.99948
0.999411
0.9994
0.9994
0.999405
0.999409
0.999413
0.999412
0.999411
0.999412
0.999419
0.999432
0.999452
0.99948
0.999414
0.9994
0.999398
0.999404
0.99941
0.999415
0.999414
0.999413
0.999415
0.999421
0.999433
0.999452
0.99948
0.999417
0.999401
0.999399
0.999405
0.999413
0.999419
0.999418
0.999417
0.999418
0.999425
0.999436
0.999454
0.99948
0.99942
0.999406
0.999405
0.999411
0.999419
0.999425
0.999424
0.999422
0.999423
0.99943
0.999441
0.999457
0.999482
0.999423
0.999412
0.999412
0.99942
0.999427
0.999433
0.999433
0.999432
0.999432
0.999438
0.999448
0.999463
0.999486
0.999429
0.999419
0.999426
0.999432
0.999437
0.999442
0.999443
0.999442
0.999443
0.999449
0.999458
0.999472
0.999492
0.999419
0.999451
0.999449
0.999447
0.999449
0.999453
0.999452
0.999452
0.999452
0.999462
0.99947
0.999484
0.999504
0.999585
0.999514
0.999477
0.999464
0.999462
0.999462
0.999458
0.999454
0.999456
0.999471
0.999484
0.999498
0.999518
0.999589
0.999551
0.999501
0.999479
0.999474
0.999474
0.99947
0.999467
0.999469
0.999486
0.999498
0.999512
0.999532
0.999604
0.99956
0.999516
0.999492
0.999484
0.999484
0.999482
0.999482
0.999486
0.999501
0.999513
0.999527
0.999547
0.999601
0.999568
0.999524
0.9995
0.999492
0.999492
0.999493
0.999496
0.999502
0.999516
0.999528
0.999543
0.999562
0.999593
0.999573
0.99953
0.999506
0.999498
0.9995
0.999502
0.999506
0.999514
0.999529
0.999543
0.999558
0.999577
0.999593
0.999577
0.999538
0.999513
0.999506
0.999509
0.999513
0.999518
0.999527
0.999544
0.999556
0.999569
0.999588
0.999601
0.999586
0.999543
0.999521
0.999515
0.999519
0.999525
0.999532
0.999542
0.999559
0.999569
0.999575
0.999587
0.99962
0.99958
0.999546
0.999531
0.999528
0.999533
0.999539
0.999548
0.99956
0.999575
0.999583
0.99958
0.99956
0.99952
0.999555
0.999552
0.999545
0.999545
0.99955
0.999558
0.999567
0.999579
0.999593
0.999602
0.999592
0.999521
0.99958
0.999564
0.999568
0.999568
0.999569
0.999574
0.999582
0.99959
0.999602
0.999617
0.999626
0.999613
0.999534
0.999361
0.999389
0.999389
0.999389
0.999388
0.999389
0.99939
0.999391
0.999393
0.999398
0.999408
0.999423
0.999446
0.999358
0.999377
0.999385
0.999389
0.999392
0.999394
0.999395
0.999395
0.999397
0.999401
0.99941
0.999424
0.999447
0.999364
0.999376
0.999382
0.999389
0.999394
0.999398
0.999399
0.999399
0.999401
0.999404
0.999413
0.999426
0.999448
0.999369
0.999377
0.999384
0.999392
0.999398
0.999402
0.999404
0.999404
0.999406
0.999408
0.999416
0.999428
0.999449
0.999373
0.999381
0.999388
0.999397
0.999403
0.999408
0.999411
0.999411
0.999412
0.999414
0.999421
0.999432
0.999452
0.999377
0.999387
0.999395
0.999405
0.999411
0.999417
0.999419
0.999419
0.99942
0.999422
0.999428
0.999438
0.999456
0.99938
0.999396
0.999408
0.999415
0.999421
0.999427
0.999429
0.99943
0.999431
0.999433
0.999438
0.999447
0.999464
0.999389
0.999424
0.999426
0.999429
0.999433
0.999438
0.99944
0.999441
0.999442
0.999445
0.99945
0.999459
0.999476
0.999477
0.999465
0.999448
0.999444
0.999445
0.999449
0.999451
0.999452
0.999454
0.999458
0.999464
0.999472
0.999486
0.999674
0.999517
0.999474
0.999461
0.999458
0.999459
0.999461
0.999462
0.999465
0.99947
0.999477
0.999486
0.9995
0.999808
0.999567
0.999498
0.999476
0.999469
0.99947
0.999472
0.999473
0.999477
0.999484
0.999492
0.999501
0.999515
0.999827
0.999604
0.999517
0.999489
0.99948
0.99948
0.999483
0.999486
0.99949
0.999498
0.999506
0.999516
0.99953
0.999839
0.999617
0.999532
0.999499
0.999489
0.99949
0.999493
0.999497
0.999504
0.999512
0.999521
0.999531
0.999546
0.999845
0.999625
0.99954
0.999508
0.999497
0.999498
0.999503
0.999509
0.999516
0.999525
0.999535
0.999546
0.999561
0.999861
0.999631
0.999544
0.999514
0.999505
0.999507
0.999513
0.999519
0.999528
0.999538
0.999548
0.999559
0.999574
0.999875
0.999622
0.999545
0.99952
0.999514
0.999516
0.999523
0.999531
0.99954
0.99955
0.99956
0.99957
0.999583
0.999809
0.999605
0.999547
0.999528
0.999524
0.999527
0.999534
0.999543
0.999553
0.999563
0.999571
0.999577
0.999588
0.999633
0.999588
0.999554
0.99954
0.999536
0.99954
0.999547
0.999556
0.999567
0.999578
0.999585
0.999582
0.999563
0.999543
0.999573
0.999561
0.999551
0.99955
0.999554
0.999561
0.99957
0.999582
0.999595
0.999604
0.999601
0.999581
0.999328
0.999364
0.999372
0.999372
0.999372
0.999374
0.999376
0.999377
0.999379
0.999381
0.999387
0.999397
0.999415
0.999319
0.999353
0.999365
0.999373
0.999377
0.99938
0.999382
0.999383
0.999384
0.999386
0.999391
0.999399
0.999416
0.999328
0.999352
0.999366
0.999375
0.999381
0.999386
0.999388
0.999389
0.99939
0.999391
0.999395
0.999402
0.999418
0.999334
0.999356
0.999369
0.99938
0.999387
0.999393
0.999396
0.999397
0.999397
0.999397
0.9994
0.999406
0.99942
0.99934
0.999361
0.999375
0.999387
0.999394
0.999401
0.999404
0.999406
0.999406
0.999405
0.999407
0.999412
0.999424
0.999345
0.999368
0.999383
0.999395
0.999404
0.999411
0.999415
0.999416
0.999416
0.999415
0.999416
0.99942
0.999432
0.999348
0.999376
0.999391
0.999405
0.999415
0.999422
0.999427
0.999428
0.999429
0.999428
0.999429
0.999432
0.999442
0.999351
0.99938
0.999403
0.999417
0.999426
0.999434
0.999439
0.999441
0.999442
0.999442
0.999443
0.999446
0.999455
0.999329
0.999397
0.99942
0.999431
0.999438
0.999445
0.999451
0.999454
0.999456
0.999456
0.999457
0.99946
0.999469
0.999408
0.999435
0.99944
0.999445
0.99945
0.999456
0.999462
0.999465
0.999468
0.99947
0.999472
0.999475
0.999483
0.999388
0.999457
0.999458
0.999459
0.999461
0.999466
0.999472
0.999476
0.999481
0.999483
0.999487
0.99949
0.999499
0.999395
0.999461
0.99947
0.99947
0.999471
0.999476
0.999482
0.999488
0.999493
0.999497
0.999501
0.999506
0.999515
0.9994
0.99947
0.999478
0.999479
0.99948
0.999485
0.999492
0.999498
0.999504
0.99951
0.999515
0.999521
0.999531
0.99941
0.999477
0.999486
0.999487
0.999488
0.999494
0.999501
0.999508
0.999516
0.999522
0.999529
0.999536
0.999547
0.999422
0.999486
0.999495
0.999494
0.999495
0.999501
0.99951
0.999518
0.999526
0.999533
0.999542
0.99955
0.999562
0.999436
0.999502
0.999501
0.999501
0.999503
0.999509
0.999518
0.999527
0.999536
0.999544
0.999553
0.999562
0.999576
0.999501
0.999504
0.999508
0.999509
0.999511
0.999518
0.999526
0.999535
0.999545
0.999554
0.999564
0.999574
0.999586
0.999434
0.999515
0.99952
0.999519
0.999521
0.999527
0.999536
0.999545
0.999555
0.999566
0.999575
0.999581
0.999592
0.999504
0.999521
0.99953
0.99953
0.999532
0.99954
0.999548
0.999556
0.999567
0.99958
0.999593
0.999606
0.999621
0.999315
0.999359
0.999358
0.99936
0.99936
0.999363
0.999365
0.999366
0.999367
0.999366
0.999368
0.999372
0.999384
0.999301
0.999332
0.999352
0.999361
0.999365
0.999369
0.999371
0.999372
0.999372
0.999371
0.999372
0.999375
0.999386
0.999301
0.999336
0.999352
0.999364
0.999371
0.999376
0.999379
0.99938
0.999379
0.999377
0.999376
0.999378
0.999388
0.999309
0.999337
0.999357
0.99937
0.999378
0.999384
0.999388
0.999389
0.999388
0.999384
0.999383
0.999383
0.999392
0.999316
0.999347
0.999364
0.999378
0.999387
0.999394
0.999399
0.9994
0.999398
0.999394
0.999392
0.999391
0.999398
0.999324
0.999354
0.999373
0.999387
0.999397
0.999406
0.999411
0.999412
0.999411
0.999407
0.999404
0.999402
0.999407
0.999327
0.99936
0.999381
0.999397
0.999409
0.999418
0.999424
0.999426
0.999426
0.999422
0.999418
0.999415
0.999419
0.999329
0.999368
0.99939
0.999408
0.99942
0.99943
0.999437
0.99944
0.999441
0.999437
0.999434
0.999431
0.999434
0.999332
0.999373
0.999401
0.99942
0.999431
0.999442
0.99945
0.999454
0.999455
0.999453
0.99945
0.999447
0.99945
0.999348
0.999399
0.999418
0.999432
0.999442
0.999452
0.999461
0.999466
0.999469
0.999468
0.999466
0.999464
0.999466
0.999349
0.999405
0.99943
0.999443
0.999452
0.999462
0.999471
0.999477
0.999481
0.999481
0.999481
0.99948
0.999483
0.999347
0.999411
0.999436
0.999451
0.99946
0.999471
0.99948
0.999488
0.999493
0.999494
0.999496
0.999496
0.9995
0.999347
0.999414
0.999442
0.999458
0.999468
0.999479
0.999489
0.999497
0.999504
0.999507
0.99951
0.999511
0.999517
0.999354
0.99942
0.999449
0.999465
0.999476
0.999487
0.999497
0.999506
0.999514
0.999518
0.999523
0.999527
0.999534
0.999361
0.999429
0.999456
0.999473
0.999483
0.999493
0.999504
0.999514
0.999523
0.999528
0.999535
0.999541
0.999551
0.999372
0.999433
0.999467
0.999481
0.999489
0.999499
0.99951
0.99952
0.99953
0.999537
0.999546
0.999555
0.999567
0.999357
0.99946
0.99948
0.999488
0.999495
0.999504
0.999515
0.999525
0.999536
0.999545
0.999556
0.999567
0.999584
0.999495
0.999488
0.99949
0.999495
0.999502
0.999511
0.999522
0.999532
0.999542
0.999553
0.999566
0.999583
0.999602
0.999529
0.999527
0.999509
0.99951
0.999518
0.999528
0.999537
0.999546
0.999556
0.999569
0.999585
0.999609
0.999659
0.99937
0.999352
0.999349
0.99935
0.999351
0.999353
0.999355
0.999355
0.999354
0.99935
0.999348
0.999347
0.999354
0.999266
0.999331
0.999344
0.999352
0.999356
0.99936
0.999362
0.999362
0.99936
0.999355
0.999352
0.99935
0.999356
0.999291
0.999321
0.999345
0.999357
0.999363
0.999368
0.99937
0.99937
0.999367
0.999362
0.999357
0.999354
0.999359
0.999282
0.999328
0.999349
0.999364
0.999372
0.999377
0.999381
0.99938
0.999377
0.999371
0.999365
0.99936
0.999363
0.999307
0.999337
0.999358
0.999373
0.999382
0.999389
0.999393
0.999393
0.99939
0.999383
0.999376
0.999369
0.99937
0.999312
0.999347
0.999367
0.999383
0.999393
0.999401
0.999407
0.999408
0.999405
0.999397
0.999389
0.999382
0.999381
0.999316
0.999354
0.999376
0.999393
0.999405
0.999415
0.999421
0.999423
0.999421
0.999414
0.999406
0.999397
0.999395
0.999321
0.999361
0.999385
0.999404
0.999416
0.999427
0.999435
0.999439
0.999438
0.999431
0.999424
0.999415
0.999412
0.999327
0.999368
0.999393
0.999413
0.999427
0.999439
0.999448
0.999453
0.999454
0.999448
0.999441
0.999433
0.99943
0.999337
0.999379
0.999405
0.999423
0.999436
0.999449
0.99946
0.999466
0.999468
0.999464
0.999458
0.999451
0.999448
0.999345
0.999387
0.999411
0.999431
0.999444
0.999458
0.999469
0.999476
0.99948
0.999478
0.999474
0.999468
0.999466
0.999342
0.999389
0.999417
0.999437
0.999451
0.999465
0.999477
0.999486
0.999491
0.99949
0.999489
0.999484
0.999484
0.999333
0.999389
0.999421
0.999442
0.999458
0.999472
0.999485
0.999495
0.999501
0.999502
0.999502
0.9995
0.999502
0.999338
0.999393
0.999426
0.999449
0.999464
0.999479
0.999492
0.999502
0.99951
0.999513
0.999515
0.999516
0.99952
0.999342
0.9994
0.999436
0.999456
0.99947
0.999484
0.999498
0.999508
0.999517
0.999522
0.999527
0.999531
0.999537
0.999348
0.999424
0.999446
0.999462
0.999474
0.999487
0.999501
0.999512
0.999522
0.999529
0.999537
0.999545
0.999557
0.999424
0.99945
0.999454
0.999464
0.999475
0.999487
0.9995
0.999512
0.999523
0.999532
0.999544
0.999562
0.999582
0.999602
0.999462
0.999447
0.999455
0.999466
0.99948
0.999493
0.999506
0.999518
0.99953
0.999547
0.999572
0.999624
0.999647
0.99945
0.999419
0.999423
0.999437
0.999453
0.999469
0.999484
0.999501
0.999518
0.99954
0.999573
0.999653
0.999382
0.999348
0.999341
0.999342
0.999342
0.999344
0.999345
0.999344
0.99934
0.999333
0.999327
0.999322
0.999324
0.999331
0.999333
0.999342
0.999346
0.999348
0.999351
0.999352
0.99935
0.999346
0.999338
0.999331
0.999325
0.999326
0.999282
0.999334
0.999344
0.999353
0.999357
0.99936
0.999361
0.999359
0.999355
0.999346
0.999337
0.999329
0.999329
0.999281
0.99933
0.999351
0.999361
0.999367
0.999371
0.999373
0.999371
0.999366
0.999356
0.999346
0.999336
0.999334
0.999297
0.999338
0.999358
0.999371
0.999378
0.999384
0.999387
0.999385
0.99938
0.999369
0.999358
0.999346
0.999342
0.999314
0.999347
0.999367
0.999381
0.99939
0.999398
0.999402
0.999401
0.999396
0.999385
0.999373
0.99936
0.999354
0.999319
0.999357
0.999376
0.999392
0.999403
0.999412
0.999418
0.999418
0.999414
0.999404
0.999391
0.999378
0.99937
0.999324
0.999363
0.999386
0.999402
0.999414
0.999425
0.999433
0.999435
0.999432
0.999423
0.999411
0.999397
0.999389
0.999327
0.999368
0.999391
0.99941
0.999424
0.999437
0.999446
0.99945
0.999449
0.999441
0.99943
0.999417
0.999408
0.999342
0.999377
0.999399
0.999418
0.999433
0.999446
0.999457
0.999463
0.999464
0.999458
0.999449
0.999436
0.999428
0.999353
0.999381
0.999404
0.999424
0.999439
0.999454
0.999466
0.999474
0.999477
0.999472
0.999465
0.999454
0.999447
0.999352
0.999381
0.999406
0.999428
0.999444
0.99946
0.999474
0.999483
0.999487
0.999485
0.99948
0.999472
0.999466
0.999336
0.99938
0.999409
0.999432
0.999449
0.999466
0.999481
0.999491
0.999497
0.999496
0.999493
0.999488
0.999485
0.999328
0.999381
0.999412
0.999436
0.999454
0.999472
0.999487
0.999497
0.999505
0.999506
0.999506
0.999503
0.999504
0.999329
0.999384
0.999416
0.999441
0.999459
0.999476
0.999491
0.999502
0.999511
0.999514
0.999517
0.999518
0.999522
0.999333
0.999384
0.999422
0.999446
0.999463
0.999479
0.999493
0.999505
0.999514
0.99952
0.999525
0.999531
0.99954
0.999312
0.999397
0.999431
0.99945
0.999465
0.999479
0.999493
0.999505
0.999515
0.999523
0.999533
0.999543
0.99956
0.999412
0.999434
0.999439
0.99945
0.999463
0.999477
0.999491
0.999502
0.999513
0.999524
0.999539
0.999559
0.99958
0.999426
0.999447
0.999439
0.999446
0.999459
0.999474
0.999487
0.999498
0.99951
0.999525
0.999544
0.999574
0.999629
0.999348
0.999339
0.999337
0.999336
0.999335
0.999335
0.999334
0.999331
0.999325
0.999315
0.999305
0.999295
0.999294
0.999278
0.99934
0.999341
0.999342
0.999341
0.999342
0.999342
0.999338
0.999331
0.99932
0.999309
0.999299
0.999297
0.999313
0.999333
0.999347
0.99935
0.999351
0.999352
0.999352
0.999348
0.99934
0.999328
0.999316
0.999304
0.9993
0.999316
0.999345
0.999353
0.99936
0.999362
0.999364
0.999365
0.999361
0.999353
0.999339
0.999325
0.999311
0.999305
0.99933
0.999354
0.999364
0.999371
0.999375
0.999378
0.99938
0.999376
0.999368
0.999354
0.999338
0.999322
0.999314
0.999334
0.999363
0.999374
0.999383
0.999388
0.999393
0.999396
0.999393
0.999386
0.999371
0.999355
0.999337
0.999327
0.999342
0.999371
0.999385
0.999394
0.999401
0.999408
0.999413
0.999412
0.999405
0.999391
0.999375
0.999356
0.999344
0.999346
0.999383
0.999392
0.999404
0.999413
0.999423
0.999429
0.99943
0.999425
0.999412
0.999396
0.999377
0.999364
0.999344
0.999369
0.999394
0.999411
0.999423
0.999435
0.999443
0.999446
0.999443
0.999432
0.999417
0.999399
0.999386
0.99935
0.999381
0.999398
0.999417
0.999431
0.999444
0.999455
0.99946
0.999459
0.99945
0.999437
0.99942
0.999407
0.999357
0.999383
0.999403
0.999421
0.999436
0.999451
0.999463
0.99947
0.999472
0.999465
0.999454
0.999439
0.999428
0.99935
0.999382
0.999403
0.999424
0.99944
0.999457
0.99947
0.999479
0.999482
0.999477
0.999469
0.999457
0.999448
0.999335
0.999376
0.999403
0.999426
0.999444
0.999461
0.999476
0.999486
0.999491
0.999488
0.999483
0.999474
0.999468
0.999331
0.999375
0.999405
0.999429
0.999448
0.999465
0.999481
0.999492
0.999498
0.999497
0.999495
0.999489
0.999487
0.999333
0.999377
0.999408
0.999432
0.999451
0.999469
0.999484
0.999496
0.999503
0.999505
0.999505
0.999503
0.999505
0.999337
0.999383
0.999411
0.999436
0.999454
0.999471
0.999486
0.999498
0.999506
0.99951
0.999513
0.999516
0.999523
0.999348
0.999387
0.999419
0.999441
0.999458
0.999473
0.999487
0.999498
0.999507
0.999513
0.99952
0.999528
0.999541
0.999372
0.999417
0.999432
0.999447
0.99946
0.999475
0.999487
0.999497
0.999507
0.999516
0.999528
0.999541
0.999561
0.99941
0.999429
0.999441
0.999452
0.999465
0.999479
0.999489
0.999498
0.999507
0.999519
0.999536
0.99956
0.999588
0.999319
0.999342
0.999337
0.999331
0.999327
0.999325
0.999323
0.999317
0.999309
0.999295
0.999282
0.99927
0.999266
0.999389
0.999353
0.999342
0.999338
0.999334
0.999333
0.99933
0.999325
0.999315
0.999301
0.999287
0.999273
0.999268
0.999373
0.999371
0.999353
0.999347
0.999345
0.999344
0.999341
0.999335
0.999325
0.99931
0.999293
0.999278
0.999272
0.999385
0.999375
0.999365
0.999359
0.999357
0.999357
0.999355
0.999349
0.999338
0.999321
0.999303
0.999286
0.999277
0.999392
0.999385
0.999375
0.999372
0.999371
0.999372
0.999371
0.999365
0.999354
0.999337
0.999317
0.999298
0.999287
0.99939
0.999392
0.999386
0.999385
0.999386
0.999388
0.999389
0.999384
0.999373
0.999355
0.999335
0.999314
0.9993
0.999401
0.999403
0.999395
0.999396
0.9994
0.999405
0.999407
0.999404
0.999394
0.999377
0.999356
0.999334
0.999319
0.999427
0.999406
0.999401
0.999406
0.999412
0.99942
0.999424
0.999423
0.999415
0.999399
0.999379
0.999357
0.99934
0.999338
0.99939
0.999404
0.999414
0.999423
0.999432
0.999439
0.99944
0.999435
0.999421
0.999402
0.99938
0.999363
0.999375
0.999385
0.999405
0.999419
0.999431
0.999442
0.999451
0.999455
0.999452
0.99944
0.999423
0.999402
0.999386
0.99937
0.999391
0.999405
0.999422
0.999435
0.999449
0.99946
0.999466
0.999465
0.999455
0.999441
0.999423
0.999408
0.999359
0.999386
0.999405
0.999423
0.999439
0.999454
0.999467
0.999474
0.999476
0.999469
0.999458
0.999442
0.999429
0.999345
0.999379
0.999403
0.999424
0.999441
0.999458
0.999472
0.999481
0.999484
0.99948
0.999471
0.999459
0.99945
0.999337
0.999376
0.999403
0.999426
0.999444
0.999461
0.999476
0.999486
0.999491
0.999489
0.999484
0.999475
0.99947
0.999338
0.999378
0.999405
0.999429
0.999446
0.999464
0.999479
0.999489
0.999495
0.999495
0.999494
0.999489
0.999489
0.999346
0.999383
0.999408
0.999431
0.999449
0.999466
0.99948
0.999491
0.999498
0.9995
0.999502
0.999502
0.999507
0.999359
0.999392
0.999414
0.999435
0.999452
0.999468
0.999481
0.999491
0.999498
0.999503
0.999508
0.999514
0.999524
0.999381
0.999407
0.999426
0.999442
0.999456
0.99947
0.999482
0.99949
0.999498
0.999505
0.999514
0.999526
0.999542
0.99942
0.999422
0.999433
0.999447
0.999462
0.999475
0.999484
0.99949
0.999497
0.999507
0.999522
0.999539
0.999561
0.999356
0.999352
0.999334
0.999324
0.999317
0.999314
0.999309
0.999302
0.999291
0.999275
0.999258
0.999244
0.999239
0.999446
0.999366
0.99934
0.999331
0.999325
0.999322
0.999318
0.999309
0.999298
0.999281
0.999263
0.999247
0.999241
0.999531
0.999389
0.999352
0.999341
0.999336
0.999333
0.999329
0.999321
0.999308
0.999289
0.99927
0.999253
0.999245
0.999554
0.999413
0.999367
0.999355
0.99935
0.999348
0.999344
0.999335
0.999321
0.999302
0.999281
0.999261
0.99925
0.99956
0.999427
0.999382
0.999369
0.999365
0.999364
0.999361
0.999352
0.999338
0.999318
0.999295
0.999273
0.99926
0.999561
0.999437
0.999393
0.999383
0.99938
0.999381
0.999379
0.999372
0.999359
0.999338
0.999314
0.99929
0.999274
0.999571
0.999437
0.999402
0.999395
0.999396
0.999398
0.999399
0.999393
0.999381
0.99936
0.999336
0.99931
0.999293
0.99955
0.999434
0.999408
0.999406
0.999409
0.999415
0.999417
0.999414
0.999403
0.999384
0.99936
0.999334
0.999315
0.999452
0.999426
0.999414
0.999415
0.999421
0.999428
0.999433
0.999432
0.999424
0.999407
0.999384
0.999359
0.999339
0.999387
0.999414
0.999415
0.999422
0.999429
0.999439
0.999446
0.999447
0.999442
0.999427
0.999407
0.999383
0.999364
0.999382
0.999398
0.999413
0.999424
0.999435
0.999446
0.999456
0.999459
0.999456
0.999444
0.999427
0.999405
0.999388
0.999368
0.999393
0.999409
0.999425
0.999438
0.999451
0.999463
0.999468
0.999468
0.999458
0.999444
0.999426
0.99941
0.999351
0.999384
0.999406
0.999425
0.99944
0.999455
0.999467
0.999475
0.999476
0.99947
0.999459
0.999444
0.999432
0.999341
0.999381
0.999405
0.999426
0.999442
0.999458
0.999471
0.99948
0.999483
0.999479
0.999471
0.999461
0.999453
0.999342
0.999381
0.999407
0.999427
0.999444
0.99946
0.999474
0.999483
0.999487
0.999485
0.999482
0.999475
0.999473
0.999349
0.999383
0.999406
0.999429
0.999446
0.999461
0.999475
0.999484
0.999489
0.99949
0.99949
0.999488
0.999491
0.999363
0.999392
0.999413
0.999432
0.999448
0.999463
0.999475
0.999484
0.99949
0.999492
0.999496
0.9995
0.999509
0.999388
0.999406
0.999421
0.999438
0.999452
0.999466
0.999476
0.999483
0.999489
0.999494
0.999501
0.999511
0.999525
0.999427
0.999421
0.999429
0.999443
0.999457
0.999471
0.999478
0.999482
0.999487
0.999495
0.999507
0.999522
0.999542
0.999275
0.999311
0.999313
0.99931
0.999304
0.9993
0.999294
0.999284
0.999271
0.999253
0.999235
0.999219
0.999214
0.999283
0.999316
0.999319
0.999316
0.999312
0.999308