# vtk DataFile Version 2.0
I need something to put here
ASCII

DATASET STRUCTURED_GRID
DIMENSIONS 14 20 40
POINTS 11200 float
0.650000 0.500000 0.000000
0.675000 0.500000 0.000000
0.700000 0.500000 0.000000
0.725000 0.500000 0.000000
0.750000 0.500000 0.000000
0.775000 0.500000 0.000000
0.800000 0.500000 0.000000
0.825000 0.500000 0.000000
0.850000 0.500000 0.000000
0.875000 0.500000 0.000000
0.900000 0.500000 0.000000
0.925000 0.500000 0.000000
0.950000 0.500000 0.000000
0.975000 0.500000 0.000000
0.650000 0.525000 0.000000
0.675000 0.525000 0.000000
0.700000 0.525000 0.000000
0.725000 0.525000 0.000000
0.750000 0.525000 0.000000
0.775000 0.525000 0.000000
0.800000 0.525000 0.000000
0.825000 0.525000 0.000000
0.850000 0.525000 0.000000
0.875000 0.525000 0.000000
0.900000 0.525000 0.000000
0.925000 0.525000 0.000000
0.950000 0.525000 0.000000
0.975000 0.525000 0.000000
0.650000 0.550000 0.000000
0.675000 0.550000 0.000000
0.700000 0.550000 0.000000
0.725000 0.550000 0.000000
0.750000 0.550000 0.000000
0.775000 0.550000 0.000000
0.800000 0.550000 0.000000
0.825000 0.550000 0.000000
0.850000 0.550000 0.000000
0.875000 0.550000 0.000000
0.900000 0.550000 0.000000
0.925000 0.550000 0.000000
0.950000 0.550000 0.000000
0.975000 0.550000 0.000000
0.650000 0.575000 0.000000
0.675000 0.575000 0.000000
0.700000 0.575000 0.000000
0.725000 0.575000 0.000000
0.750000 0.575000 0.000000
0.775000 0.575000 0.000000
0.800000 0.575000 0.000000
0.825000 0.575000 0.000000
0.850000 0.575000 0.000000
0.875000 0.575000 0.000000
0.900000 0.575000 0.000000
0.925000 0.575000 0.000000
0.950000 0.575000 0.000000
0.975000 0.575000 0.000000
0.650000 0.600000 0.000000
0.675000 0.600000 0.000000
0.700000 0.600000 0.000000
0.725000 0.600000 0.000000
0.750000 0.600000 0.000000
0.775000 0.600000 0.000000
0.800000 0.600000 0.000000
0.825000 0.600000 0.000000
0.850000 0.600000 0.000000
0.875000 0.600000 0.000000
0.900000 0.600000 0.000000
0.925000 0.600000 0.000000
0.950000 0.600000 0.000000
0.975000 0.600000 0.000000
0.650000 0.625000 0.000000
0.675000 0.625000 0.000000
0.700000 0.625000 0.000000
0.725000 0.625000 0.000000
0.750000 0.625000 0.000000
0.775000 0.625000 0.000000
0.800000 0.625000 0.000000
0.825000 0.625000 0.000000
0.850000 0.625000 0.000000
0.875000 0.625000 0.000000
0.900000 0.625000 0.000000
0.925000 0.625000 0.000000
0.950000 0.625000 0.000000
0.975000 0.625000 0.000000
0.650000 0.650000 0.000000
0.675000 0.650000 0.000000
0.700000 0.650000 0.000000
0.725000 0.650000 0.000000
0.750000 0.650000 0.000000
0.775000 0.650000 0.000000
0.800000 0.650000 0.000000
0.825000 0.650000 0.000000
0.850000 0.650000 0.000000
0.875000 0.650000 0.000000
0.900000 0.650000 0.000000
0.925000 0.650000 0.000000
0.950000 0.650000 0.000000
0.975000 0.650000 0.000000
0.650000 0.675000 0.000000
0.675000 0.675000 0.000000
0.700000 0.675000 0.000000
0.725000 0.675000 0.000000
0.750000 0.675000 0.000000
0.775000 0.675000 0.000000
0.800000 0.675000 0.000000
0.825000 0.675000 0.000000
0.850000 0.675000 0.000000
0.875000 0.675000 0.000000
0.900000 0.675000 0.000000
0.925000 0.675000 0.000000
0.950000 0.675000 0.000000
0.975000 0.675000 0.000000
0.650000 0.700000 0.000000
0.675000 0.700000 0.000000
0.700000 0.700000 0.000000
0.725000 0.700000 0.000000
0.750000 0.700000 0.000000
0.775000 0.700000 0.000000
0.800000 0.700000 0.000000
0.825000 0.700000 0.000000
0.850000 0.700000 0.000000
0.875000 0.700000 0.000000
0.900000 0.700000 0.000000
0.925000 0.700000 0.000000
0.950000 0.700000 0.000000
0.975000 0.700000 0.000000
0.650000 0.725000 0.000000
0.675000 0.725000 0.000000
0.700000 0.725000 0.000000
0.725000 0.725000 0.000000
0.750000 0.725000 0.000000
0.775000 0.725000 0.000000
0.800000 0.725000 0.000000
0.825000 0.725000 0.000000
0.850000 0.725000 0.000000
0.875000 0.725000 0.000000
0.900000 0.725000 0.000000
0.925000 0.725000 0.000000
0.950000 0.725000 0.000000
0.975000 0.725000 0.000000
0.650000 0.750000 0.000000
0.675000 0.750000 0.000000
0.700000 0.750000 0.000000
0.725000 0.750000 0.000000
0.750000 0.750000 0.000000
0.775000 0.750000 0.000000
0.800000 0.750000 0.000000
0.825000 0.750000 0.000000
0.850000 0.750000 0.000000
0.875000 0.750000 0.000000
0.900000 0.750000 0.000000
0.925000 0.750000 0.000000
0.950000 0.750000 0.000000
0.975000 0.750000 0.000000
0.650000 0.775000 0.000000
0.675000 0.775000 0.000000
0.700000 0.775000 0.000000
0.725000 0.775000 0.000000
0.750000 0.775000 0.000000
0.775000 0.775000 0.000000
0.800000 0.775000 0.000000
0.825000 0.775000 0.000000
0.850000 0.775000 0.000000
0.875000 0.775000 0.000000
0.900000 0.775000 0.000000
0.925000 0.775000 0.000000
0.950000 0.775000 0.000000
0.975000 0.775000 0.000000
0.650000 0.800000 0.000000
0.675000 0.800000 0.000000
0.700000 0.800000 0.000000
0.725000 0.800000 0.000000
0.750000 0.800000 0.000000
0.775000 0.800000 0.000000
0.800000 0.800000 0.000000
0.825000 0.800000 0.000000
0.850000 0.800000 0.000000
0.875000 0.800000 0.000000
0.900000 0.800000 0.000000
0.925000 0.800000 0.000000
0.950000 0.800000 0.000000
0.975000 0.800000 0.000000
0.650000 0.825000 0.000000
0.675000 0.825000 0.000000
0.700000 0.825000 0.000000
0.725000 0.825000 0.000000
0.750000 0.825000 0.000000
0.775000 0.825000 0.000000
0.800000 0.825000 0.000000
0.825000 0.825000 0.000000
0.850000 0.825000 0.000000
0.875000 0.825000 0.000000
0.900000 0.825000 0.000000
0.925000 0.825000 0.000000
0.950000 0.825000 0.000000
0.975000 0.825000 0.000000
0.650000 0.850000 0.000000
0.675000 0.850000 0.000000
0.700000 0.850000 0.000000
0.725000 0.850000 0.000000
0.750000 0.850000 0.000000
0.775000 0.850000 0.000000
0.800000 0.850000 0.000000
0.825000 0.850000 0.000000
0.850000 0.850000 0.000000
0.875000 0.850000 0.000000
0.900000 0.850000 0.000000
0.925000 0.850000 0.000000
0.950000 0.850000 0.000000
0.975000 0.850000 0.000000
0.650000 0.875000 0.000000
0.675000 0.875000 0.000000
0.700000 0.875000 0.000000
0.725000 0.875000 0.000000
0.750000 0.875000 0.000000
0.775000 0.875000 0.000000
0.800000 0.875000 0.000000
0.825000 0.875000 0.000000
0.850000 0.875000 0.000000
0.875000 0.875000 0.000000
0.900000 0.875000 0.000000
0.925000 0.875000 0.000000
0.950000 0.875000 0.000000
0.975000 0.875000 0.000000
0.650000 0.900000 0.000000
0.675000 0.900000 0.000000
0.700000 0.900000 0.000000
0.725000 0.900000 0.000000
0.750000 0.900000 0.000000
0.775000 0.900000 0.000000
0.800000 0.900000 0.000000
0.825000 0.900000 0.000000
0.850000 0.900000 0.000000
0.875000 0.900000 0.000000
0.900000 0.900000 0.000000
0.925000 0.900000 0.000000
0.950000 0.900000 0.000000
0.975000 0.900000 0.000000
0.650000 0.925000 0.000000
0.675000 0.925000 0.000000
0.700000 0.925000 0.000000
0.725000 0.925000 0.000000
0.750000 0.925000 0.000000
0.775000 0.925000 0.000000
0.800000 0.925000 0.000000
0.825000 0.925000 0.000000
0.850000 0.925000 0.000000
0.875000 0.925000 0.000000
0.900000 0.925000 0.000000
0.925000 0.925000 0.000000
0.950000 0.925000 0.000000
0.975000 0.925000 0.000000
0.650000 0.950000 0.000000
0.675000 0.950000 0.000000
0.700000 0.950000 0.000000
0.725000 0.950000 0.000000
0.750000 0.950000 0.000000
0.775000 0.950000 0.000000
0.800000 0.950000 0.000000
0.825000 0.950000 0.000000
0.850000 0.950000 0.000000
0.875000 0.950000 0.000000
0.900000 0.950000 0.000000
0.925000 0.950000 0.000000
0.950000 0.950000 0.000000
0.975000 0.950000 0.000000
0.650000 0.975000 0.000000
0.675000 0.975000 0.000000
0.700000 0.975000 0.000000
0.725000 0.975000 0.000000
0.750000 0.975000 0.000000
0.775000 0.975000 0.000000
0.800000 0.975000 0.000000
0.825000 0.975000 0.000000
0.850000 0.975000 0.000000
0.875000 0.975000 0.000000
0.900000 0.975000 0.000000
0.925000 0.975000 0.000000
0.950000 0.975000 0.000000
0.975000 0.975000 0.000000
0.650000 0.500000 0.025000
0.675000 0.500000 0.025000
0.700000 0.500000 0.025000
0.725000 0.500000 0.025000
0.750000 0.500000 0.025000
0.775000 0.500000 0.025000
0.800000 0.500000 0.025000
0.825000 0.500000 0.025000
0.850000 0.500000 0.025000
0.875000 0.500000 0.025000
0.900000 0.500000 0.025000
0.925000 0.500000 0.025000
0.950000 0.500000 0.025000
0.975000 0.500000 0.025000
0.650000 0.525000 0.025000
0.675000 0.525000 0.025000
0.700000 0.525000 0.025000
0.725000 0.525000 0.025000
0.750000 0.525000 0.025000
0.775000 0.525000 0.025000
0.800000 0.525000 0.025000
0.825000 0.525000 0.025000
0.850000 0.525000 0.025000
0.875000 0.525000 0.025000
0.900000 0.525000 0.025000
0.925000 0.525000 0.025000
0.950000 0.525000 0.025000
0.975000 0.525000 0.025000
0.650000 0.550000 0.025000
0.675000 0.550000 0.025000
0.700000 0.550000 0.025000
0.725000 0.550000 0.025000
0.750000 0.550000 0.025000
0.775000 0.550000 0.025000
0.800000 0.550000 0.025000
0.825000 0.550000 0.025000
0.850000 0.550000 0.025000
0.875000 0.550000 0.025000
0.900000 0.550000 0.025000
0.925000 0.550000 0.025000
0.950000 0.550000 0.025000
0.975000 0.550000 0.025000
0.650000 0.575000 0.025000
0.675000 0.575000 0.025000
0.700000 0.575000 0.025000
0.725000 0.575000 0.025000
0.750000 0.575000 0.025000
0.775000 0.575000 0.025000
0.800000 0.575000 0.025000
0.825000 0.575000 0.025000
0.850000 0.575000 0.025000
0.875000 0.575000 0.025000
0.900000 0.575000 0.025000
0.925000 0.575000 0.025000
0.950000 0.575000 0.025000
0.975000 0.575000 0.025000
0.650000 0.600000 0.025000
0.675000 0.600000 0.025000
0.700000 0.600000 0.025000
0.725000 0.600000 0.025000
0.750000 0.600000 0.025000
0.775000 0.600000 0.025000
0.800000 0.600000 0.025000
0.825000 0.600000 0.025000
0.850000 0.600000 0.025000
0.875000 0.600000 0.025000
0.900000 0.600000 0.025000
0.925000 0.600000 0.025000
0.950000 0.600000 0.025000
0.975000 0.600000 0.025000
0.650000 0.625000 0.025000
0.675000 0.625000 0.025000
0.700000 0.625000 0.025000
0.725000 0.625000 0.025000
0.750000 0.625000 0.025000
0.775000 0.625000 0.025000
0.800000 0.625000 0.025000
0.825000 0.625000 0.025000
0.850000 0.625000 0.025000
0.875000 0.625000 0.025000
0.900000 0.625000 0.025000
0.925000 0.625000 0.025000
0.950000 0.625000 0.025000
0.975000 0.625000 0.025000
0.650000 0.650000 0.025000
[...]
CELL_DATA 9633
SCALARS density float 1
LOOKUP_TABLE default
0.999787
0.999764
0.999738
0.999714
0.999703
0.999727
0.999797
0.999911
1.00004
1.00017
1.00027
1.00032
1.00035
0.999794
0.999773
0.999748
0.999726
0.999719
0.999744
0.999812
0.999925
1.00006
1.00019
1.00028
1.00034
1.00036
0.999798
0.999777
0.999764
0.999739
0.999715
0.999741
0.999812
0.999927
1.00006
1.00018
1.00028
1.00035
1.00037
0.9998
0.99978
0.999756
0.999734
0.999729
0.999757
0.999829
0.999945
1.00008
1.00021
1.00031
1.00036
1.00037
0.999802
0.999781
0.999758
0.99974
0.999734
0.999765
0.999838
0.999954
1.00009
1.00022
1.00032
1.00037
1.00038
0.999805
0.999784
0.999762
0.999747
0.999743
0.999773
0.999845
0.999961
1.0001
1.00023
1.00032
1.00038
1.00038
0.999807
0.999787
0.999765
0.99975
0.999746
0.999777
0.99985
0.999966
1.0001
1.00023
1.00033
1.00038
1.00039
0.999809
0.999791
0.99977
0.999754
0.999751
0.999783
0.999856
0.999972
1.00011
1.00023
1.00033
1.00039
1.00039
0.999813
0.999795
0.999774
0.999764
0.999761
0.999792
0.999865
0.999976
1.00011
1.00023
1.00032
1.00037
1.00041
0.999816
0.999799
0.999785
0.999782
0.999784
0.999812
0.999877
0.999983
1.00011
1.00023
1.00031
1.00033
1.00028
0.999818
0.999802
0.999786
0.999786
0.999787
0.999817
0.999884
0.999988
1.00012
1.00023
1.00031
1.00031
1.00031
0.999817
0.999801
0.999785
0.99978
0.999784
0.999816
0.999886
0.999992
1.00012
1.00023
1.0003
1.00032
1.00031
0.999811
0.999797
0.99978
0.999773
0.999776
0.999811
0.999883
0.999992
1.00012
1.00023
1.0003
1.00031
1.0003
0.999805
0.99979
0.999775
0.999769
0.999772
0.999805
0.999876
0.999984
1.00011
1.00022
1.00028
1.00029
1.00028
0.999802
0.999787
0.999769
0.999762
0.999764
0.999797
0.999866
0.99997
1.00009
1.00019
1.00026
1.00027
1.00024
0.999812
0.99979
0.999765
0.999755
0.999756
0.999787
0.999852
0.99995
1.00006
1.00016
1.00023
1.00028
1.00032
0.999847
0.999798
0.999764
0.999749
0.999749
0.999777
0.999836
0.999924
1.00002
1.00012
1.00019
1.00025
1.00026
0.999896
0.999804
0.999765
0.999749
0.999746
0.999768
0.999816
0.999893
0.999983
1.00007
1.00014
1.00018
1.00019
0.999898
0.999802
0.999764
0.999748
0.999744
0.999758
0.999793
0.999854
0.999933
1.00001
1.00008
1.00012
1.00011
0.999798
0.999777
0.999753
0.999737
0.99974
0.999791
0.99989
1.00003
1.00017
1.00029
1.00037
1.00043
1.00049
0.999799
0.999778
0.999755
0.999738
0.99974
0.999793
0.999892
1.00003
1.00017
1.00029
1.00038
1.00044
1.00049
0.999801
0.999781
0.999759
0.999742
0.999744
0.999795
0.999896
1.00004
1.00018
1.00029
1.00038
1.00044
1.00049
0.999802
0.999782
0.999759
0.999744
0.999748
0.999803
0.999906
1.00005
1.00019
1.00031
1.00039
1.00045
1.0005
0.999804
0.999784
0.999761
0.999746
0.999753
0.999809
0.999914
1.00006
1.0002
1.00032
1.0004
1.00045
1.0005
0.999806
0.999786
0.999764
0.999751
0.999758
0.999816
0.99992
1.00007
1.00021
1.00033
1.00041
1.00046
1.00051
0.999808
0.999789
0.999768
0.999755
0.999763
0.999821
0.999926
1.00007
1.00021
1.00033
1.00041
1.00047
1.00052
0.999811
0.999793
0.999772
0.999761
0.99977
0.999827
0.999932
1.00008
1.00022
1.00034
1.00041
1.00046
1.00052
0.999814
0.999797
0.999778
0.999769
0.999778
0.999835
0.999939
1.00008
1.00023
1.00034
1.00041
1.00044
1.00045
0.999817
0.999802
0.999785
0.999778
0.999789
0.999845
0.999948
1.00009
1.00023
1.00034
1.00041
1.00041
1.00029
0.999818
0.999803
0.999788
0.999781
0.999793
0.99985
0.999952
1.00009
1.00023
1.00034
1.0004
1.00038
1.0002
0.999814
0.999799
0.999783
0.999778
0.99979
0.999847
0.999951
1.00009
1.00023
1.00034
1.00039
1.00036
1.00019
0.999805
0.999791
0.999775
0.999769
0.999781
0.999839
0.999943
1.00008
1.00022
1.00033
1.00037
1.00034
1.00017
0.999795
0.999781
0.999764
0.999757
0.99977
0.999827
0.999929
1.00007
1.0002
1.0003
1.00035
1.00033
1.00015
0.999788
0.999773
0.999756
0.999748
0.99976
0.999816
0.999913
1.00005
1.00017
1.00027
1.00032
1.00032
1.00019
0.99979
0.999771
0.999753
0.999744
0.999753
0.999805
0.999896
1.00002
1.00013
1.00023
1.00029
1.0003
1.00031
0.999799
0.999778
0.999755
0.999743
0.99975
0.999795
0.999875
0.999985
1.00009
1.00018
1.00024
1.00028
1.00036
0.999838
0.999791
0.99976
0.999745
0.999748
0.999783
0.99985
0.999945
1.00004
1.00013
1.00019
1.00024
1.00029
0.999841
0.999793
0.999761
0.999744
0.999743
0.999766
0.999816
0.999895
0.999986
1.00008
1.00015
1.00019
1.0002
0.999807
0.999786
0.999764
0.999751
0.999762
0.999831
0.999952
1.00011
1.00027
1.00038
1.00046
1.00052
1.0006
0.999806
0.999786
0.999764
0.999751
0.999763
0.999832
0.999953
1.00012
1.00026
1.00038
1.00046
1.00052
1.0006
0.999808
0.999788
0.999765
0.999753
0.999765
0.999836
0.999958
1.00012
1.00027
1.00038
1.00046
1.00052
1.0006
0.999808
0.999788
0.999766
0.999754
0.999768
0.999841
0.999966
1.00013
1.00028
1.00039
1.00047
1.00053
1.0006
0.999809
0.99979
0.999768
0.999757
0.999772
0.999846
0.999974
1.00014
1.00029
1.0004
1.00048
1.00054
1.00061
0.999811
0.999792
0.999771
0.99976
0.999776
0.999852
0.999981
1.00015
1.0003
1.00042
1.00049
1.00055
1.00062
0.999813
0.999795
0.999774
0.999765
0.999781
0.999858
0.999987
1.00016
1.00031
1.00043
1.00051
1.00056
1.00063
0.999817
0.999799
0.999779
0.999771
0.999788
0.999864
0.999994
1.00016
1.00032
1.00044
1.00052
1.00058
1.00065
0.99982
0.999803
0.999785
0.999778
0.999796
0.999872
1
1.00017
1.00033
1.00045
1.00052
1.00058
1.00068
0.999822
0.999807
0.99979
0.999784
0.999803
0.99988
1.00001
1.00018
1.00034
1.00045
1.00052
1.00057
1.00063
0.999822
0.999807
0.999792
0.999786
0.999806
0.999883
1.00001
1.00018
1.00034
1.00046
1.00053
1.00057
1.00066
0.999814
0.9998
0.999785
0.99978
0.999801
0.999878
1.00001
1.00018
1.00034
1.00045
1.00052
1.00057
1.00066
0.999802
0.999788
0.999772
0.999767
0.999788
0.999865
0.999996
1.00016
1.00032
1.00043
1.0005
1.00055
1.00065
0.999786
0.999772
0.999756
0.999751
0.999771
0.999847
0.999975
1.00014
1.00029
1.0004
1.00046
1.00051
1.00062
0.999775
0.99976
0.999744
0.999738
0.999757
0.999831
0.999954
1.00011
1.00025
1.00036
1.00042
1.00047
1.00055
0.999771
0.999756
0.999739
0.999732
0.999749
0.999819
0.999932
1.00008
1.00021
1.0003
1.00037
1.00044
1.00056
0.999777
0.99976
0.999742
0.999734
0.999747
0.999808
0.999908
1.00004
1.00016
1.00025
1.00031
1.00037
1.00046
0.999792
0.999772
0.99975
0.999738
0.999747
0.999794
0.999877
0.999991
1.0001
1.00019
1.00026
1.00031
1.00038
0.999789
0.999771
0.999753
0.99974
0.999742
0.999772
0.999835
0.999929
1.00003
1.00013
1.00021
1.00025
1.00028
0.999824
0.999806
0.999785
0.999775
0.999792
0.99987
1.00001
1.00018
1.00034
1.00046
1.00054
1.0006
1.0007
0.999824
0.999806
0.999785
0.999775
0.999793
0.999872
1.00001
1.00018
1.00034
1.00046
1.00054
1.0006
1.0007
0.999824
0.999806
0.999786
0.999776
0.999795
0.999876
1.00001
1.00019
1.00035
1.00046
1.00054
1.00061
1.00069
0.999825
0.999807
0.999787
0.999777
0.999797
0.99988
1.00002
1.0002
1.00036
1.00047
1.00055
1.00061
1.0007
0.999825
0.999808
0.999788
0.999779
0.9998
0.999885
1.00003
1.00021
1.00037
1.00049
1.00056
1.00062
1.00071
0.999827
0.99981
0.99979
0.999782
0.999804
0.999891
1.00003
1.00022
1.00038
1.0005
1.00058
1.00063
1.00072
0.999829
0.999812
0.999794
0.999787
0.999809
0.999897
1.00004
1.00023
1.00039
1.00052
1.00059
1.00065
1.00073
0.999832
0.999816
0.999798
0.999792
0.999816
0.999905
1.00005
1.00024
1.00041
1.00053
1.00061
1.00067
1.00075
0.999835
0.99982
0.999804
0.999799
0.999823
0.999913
1.00006
1.00025
1.00042
1.00055
1.00062
1.00069
1.00077
0.999837
0.999823
0.999808
0.999804
0.999829
0.99992
1.00007
1.00026
1.00043
1.00056
1.00063
1.00069
1.00078
0.999835
0.999822
0.999808
0.999804
0.999831
0.999922
1.00007
1.00027
1.00044
1.00056
1.00064
1.0007
1.00079
0.999825
0.999812
0.999798
0.999795
0.999822
0.999914
1.00007
1.00026
1.00043
1.00056
1.00064
1.0007
1.0008
0.999807
0.999795
0.99978
0.999778
0.999805
0.999897
1.00005
1.00024
1.00041
1.00054
1.00061
1.00068
1.00079
0.999786
0.999773
0.999758
0.999755
0.999781
0.999873
1.00002
1.00021
1.00037
1.00049
1.00057
1.00064
1.00075
0.999769
0.999755
0.99974
0.999737
0.999762
0.999851
0.999994
1.00017
1.00033
1.00044
1.00052
1.00058
1.0007
0.999761
0.999747
0.999732
0.999728
0.999751
0.999834
0.999967
1.00013
1.00028
1.00038
1.00046
1.00053
1.00067
0.999761
0.999749
0.999734
0.999729
0.999749
0.999821
0.999939
1.00009
1.00022
1.00032
1.00039
1.00043
1.00049
0.999767
0.999754
0.999742
0.999736
0.999749
0.999806
0.999904
1.00004
1.00016
1.00026
1.00032
1.00035
1.00043
0.99974
0.999754
0.999746
0.999738
0.999743
0.999779
0.999852
0.99996
1.00008
1.00019
1.00026
1.0003
1.0003
0.999855
0.999839
0.999822
0.999816
0.999837
0.999919
1.00006
1.00024
1.00041
1.00053
1.00061
1.00067
1.00076
0.999854
0.999839
0.999822
0.999816
0.999837
0.99992
1.00006
1.00024
1.00041
1.00053
1.00061
1.00068
1.00076
0.999854
0.999839
0.999822
0.999816
0.999838
0.999923
1.00007
1.00025
1.00041
1.00054
1.00062
1.00068
1.00076
0.999854
0.999839
0.999822
0.999817
0.99984
0.999927
1.00007
1.00026
1.00042
1.00055
1.00063
1.00069
1.00077
0.999855
0.99984
0.999823
0.999818
0.999843
0.999932
1.00008
1.00027
1.00044
1.00056
1.00064
1.0007
1.00078
0.999856
0.999841
0.999825
0.999821
0.999846
0.999938
1.00009
1.00028
1.00045
1.00058
1.00066
1.00071
1.00079
0.999858
0.999844
0.999828
0.999825
0.999852
0.999946
1.0001
1.0003
1.00047
1.0006
1.00068
1.00073
1.00081
0.99986
0.999847
0.999833
0.99983
0.999858
0.999954
1.00011
1.00031
1.00049
1.00062
1.00069
1.00075
1.00083
0.999863
0.999851
0.999837
0.999835
0.999865
0.999962
1.00012
1.00032
1.0005
1.00063
1.00071
1.00077
1.00085
0.999864
0.999853
0.99984
0.999839
0.99987
0.999969
1.00013
1.00034
1.00052
1.00065
1.00073
1.00079
1.00087
0.99986
0.99985
0.999838
0.999838
0.99987
0.99997
1.00013
1.00034
1.00053
1.00066
1.00074
1.0008
1.00088
0.999847
0.999837
0.999825
0.999826
0.999858
0.99996
1.00013
1.00034
1.00052
1.00066
1.00074
1.0008
1.00089
0.999826
0.999815
0.999803
0.999803
0.999835
0.999938
1.0001
1.00031
1.0005
1.00063
1.00072
1.00078
1.00088
0.999799
0.999787
0.999774
0.999773
0.999805
0.999906
1.00007
1.00028
1.00046
1.00058
1.00067
1.00074
1.00085
0.999776
0.999763
0.999749
0.999748
0.999779
0.999877
1.00004
1.00023
1.0004
1.00052
1.0006
1.00066
1.0008
0.999761
0.999749
0.999736
0.999735
0.999763
0.999855
1
1.00019
1.00035
1.00046
1.00053
1.00057
1.00066
0.999752
0.999744
0.999736
0.999735
0.99976
0.999841
0.999972
1.00014
1.00029
1.00039
1.00046
1.00048
1.00042
0.999736
0.999753
0.999749
0.999747
0.999766
0.999831
0.999942
1.00009
1.00023
1.00033
1.0004
1.0004
1.00024
0.999732
0.999771
0.999772
0.999769
0.999781
0.999827
0.999914
1.00004
1.00017
1.00029
1.00036
1.00036
1.00022
0.999895
0.999884
0.999871
0.999869
0.999893
0.999976
1.00012
1.0003
1.00047
1.0006
1.00067
1.00072
1.0008
0.999894
0.999883
0.999871
0.999868
0.999893
0.999976
1.00012
1.0003
1.00047
1.00059
1.00067
1.00073
1.0008
0.999894
0.999883
0.99987
0.999868
0.999893
0.999978
1.00012
1.0003
1.00047
1.0006
1.00068
1.00073
1.0008
0.999893
0.999882
0.99987
0.999868
0.999894
0.999982
1.00013
1.00031
1.00048
1.00061
1.00069
1.00074
1.00082
0.999894
0.999883
0.999871
0.999869
0.999897
0.999987
1.00014
1.00033
1.0005
1.00062
1.0007
1.00075
1.00082
0.999895
0.999884
0.999872
0.999872
0.9999
0.999993
1.00015
1.00034
1.00052
1.00064
1.00072
1.00077
1.00084
0.999896
0.999886
0.999875
0.999875
0.999905
1
1.00016
1.00036
1.00054
1.00067
1.00074
1.00079
1.00086
0.999898
0.999889
0.999878
0.999879
0.999911
1.00001
1.00017
1.00037
1.00055
1.00069
1.00076
1.00082
1.00088
0.9999
0.999891
0.999881
0.999884
0.999917
1.00002
1.00018
1.00039
1.00057
1.00071
1.00079
1.00084
1.00091
0.9999
0.999892
0.999883
0.999886
0.99992
1.00002
1.00019
1.0004
1.00059
1.00073
1.00081
1.00086
1.00094
0.999895
0.999888
0.999879
0.999883
0.999918
1.00002
1.00019
1.00041
1.0006
1.00074
1.00082
1.00088
1.00096
0.99988
0.999872
0.999863
0.999867
0.999903
1.00001
1.00018
1.0004
1.0006
1.00074
1.00082
1.00088
1.00097
0.999855
0.999846
0.999836
0.99984
0.999876
0.999984
1.00016
1.00038
1.00057
1.00071
1.0008
1.00086
1.00095
0.999823
0.999813
0.999802
0.999804
0.999839
0.999947
1.00012
1.00034
1.00053
1.00066
1.00075
1.00082
1.00092
0.999794
0.999783
0.999771
0.999772
0.999806
0.999911
1.00008
1.00029
1.00047
1.0006
1.00068
1.00076
1.00086
0.999776
0.999765
0.999752
0.999752
0.999783
0.999881
1.00004
1.00023
1.0004
1.00053
1.00061
1.00068
1.00081
0.999768
0.999759
0.999747
0.999747
0.999774
0.99986
1
1.00018
1.00033
1.00045
1.00052
1.00058
1.00066
0.999769
0.999761
0.999754
0.999753
0.999774
0.999843
0.999959
1.00011
1.00026
1.00038
1.00045
1.00049
1.00058
0.99975
0.999768
0.999767
0.999764
0.999776
0.999822
0.99991
1.00004
1.00018
1.0003
1.00039
1.00043
1.00045
0.999937
0.999931
0.999923
0.999925
0.999951
1.00003
1.00017
1.00035
1.00051
1.00064
1.00071
1.00074
1.0008
0.999937
0.99993
0.999923
0.999925
0.999951
1.00003
1.00017
1.00035
1.00051
1.00064
1.00071
1.00075
1.00079
0.999936
0.99993
0.999922
0.999924
0.999951
1.00003
1.00017
1.00035
1.00052
1.00064
1.00071
1.00075
1.0008
0.999936
0.999929
0.999922
0.999924
0.999952
1.00004
1.00018
1.00036
1.00053
1.00065
1.00072
1.00076
1.00082
0.999936
0.999929
0.999922
0.999925
0.999954
1.00004
1.00019
1.00037
1.00054
1.00067
1.00074
1.00077
1.00082
0.999937
0.99993
0.999923
0.999927
0.999957
1.00005
1.0002
1.00039
1.00056
1.00069
1.00076
1.00079
1.00084
0.999938
0.999932
0.999925
0.999929
0.999961
1.00006
1.00021
1.00041
1.00058
1.00071
1.00079
1.00083
1.00087
0.999939
0.999933
0.999927
0.999932
0.999966
1.00006
1.00022
1.00042
1.0006
1.00074
1.00081
1.00085
1.00089
0.99994
0.999935
0.999929
0.999935
0.99997
1.00007
1.00023
1.00044
1.00062
1.00076
1.00084
1.00088
1.00091
0.999939
0.999934
0.999929
0.999935
0.999973
1.00008
1.00024
1.00046
1.00064
1.00078
1.00086
1.0009
1.00095
0.999933
0.999928
0.999923
0.99993
0.999969
1.00008
1.00025
1.00046
1.00066
1.0008
1.00088
1.00092
1.00097
0.999916
0.999911
0.999905
0.999912
0.999951
1.00006
1.00024
1.00046
1.00065
1.0008
1.00088
1.00093
1.00099
0.999888
0.999882
0.999874
0.99988
0.999919
1.00003
1.00021
1.00043
1.00063
1.00077
1.00086
1.00091
1.00098
0.999852
0.999844
0.999835
0.999839
0.999877
0.999987
1.00016
1.00039
1.00058
1.00072
1.00081
1.00087
1.00096
0.99982
0.99981
0.999799
0.999802
0.999837
0.999945
1.00012
1.00033
1.00052
1.00065
1.00074
1.0008
1.0009
0.999797
0.999786
0.999775
0.999776
0.999808
0.999909
1.00007
1.00027
1.00045
1.00058
1.00066
1.00073
1.00082
0.999787
0.999776
0.999764
0.999764
0.999792
0.999881
1.00002
1.00021
1.00037
1.00049
1.00057
1.00062
1.00072
0.999785
0.999776
0.999765
0.999764
0.999785
0.999855
0.999974
1.00013
1.00028
1.0004
1.00049
1.00054
1.00061
0.999782
0.999776
0.99977
0.999766
0.999778
0.999824
0.999912
1.00004
1.00018
1.00031
1.00041
1.00046
1.00048
0.99997
0.999967
0.999963
0.999968
0.999996
1.00007
1.0002
1.00037
1.00053
1.00065
1.00071
1.00073
1.00073
0.99997
0.999966
0.999963
0.999968
0.999995
1.00007
1.0002
1.00037
1.00053
1.00065
1.00071
1.00072
1.00071
0.999969
0.999966
0.999962
0.999967
0.999996
1.00008
1.00021
1.00038
1.00054
1.00065
1.00071
1.00072
1.00071
0.999969
0.999966
0.999962
0.999967
0.999997
1.00008
1.00021
1.00039
1.00055
1.00066
1.00072
1.00073
1.00072
0.999969
0.999966
0.999962
0.999968
0.999998
1.00008
1.00022
1.0004
1.00056
1.00068
1.00074
1.00074
1.00073
0.999969
0.999966
0.999963
0.999969
1
1.00009
1.00023
1.00041
1.00058
1.0007
1.00076
1.00077
1.00075
0.99997
0.999967
0.999964
0.999971
1
1.00009
1.00024
1.00043
1.0006
1.00072
1.00079
1.00082
1.00086
0.99997
0.999968
0.999965
0.999972
1.00001
1.0001
1.00025
1.00045
1.00062
1.00075
1.00082
1.00085
1.00087
0.999971
0.999968
0.999966
0.999974
1.00001
1.00011
1.00027
1.00046
1.00065
1.00078
1.00085
1.00088
1.0009
0.999969
0.999967
0.999964
0.999973
1.00001
1.00011
1.00028
1.00048
1.00067
1.0008
1.00088
1.00091
1.00093
0.999963
0.99996
0.999957
0.999966
1.00001
1.00011
1.00028
1.00049
1.00068
1.00082
1.0009
1.00093
1.00096
0.999944
0.999941
0.999937
0.999945
0.999985
1.00009
1.00027
1.00049
1.00068
1.00082
1.0009
1.00095
1.00098
0.999915
0.99991
0.999904
0.999911
0.99995
1.00006
1.00024
1.00046
1.00066
1.0008
1.00088
1.00093
1.00099
0.999877
0.999869
0.999861
0.999866
0.999904
1.00001
1.00019
1.00041
1.00061
1.00075
1.00083
1.00089
1.00096
0.999841
0.999832
0.999822
0.999825
0.999861
0.999968
1.00014
1.00035
1.00054
1.00068
1.00076
1.00082
1.0009
0.999815
0.999805
0.999793
0.999795
0.999827
0.999928
1.00009
1.00029
1.00047
1.0006
1.00068
1.00074
1.00082
0.999802
0.999791
0.999779
0.999778
0.999806
0.999895
1.00004
1.00022
1.00038
1.00051
1.00059
1.00064
1.00072
0.999798
0.999787
0.999776
0.999773
0.999793
0.999864
0.999982
1.00014
1.00029
1.00042
1.0005
1.00055
1.00061
0.999799
0.999788
0.999777
0.999771
0.999781
0.999826
0.999913
1.00004
1.00019
1.00032
1.00042
1.00047
1.00047
0.99999
0.999989
0.999988
0.999995
1.00002
1.0001
1.00022
1.00038
1.00052
1.00063
1.00068
1.00068
1.00061
0.99999
0.999989
0.999988
0.999994
1.00002
1.0001
1.00022
1.00038
1.00052
1.00063
1.00068
1.00066
1.00054
0.99999
0.999989
0.999987
0.999994
1.00002
1.0001
1.00022
1.00038
1.00053
1.00064
1.00068
1.00065
1.00051
0.99999
0.999989
0.999987
0.999994
1.00002
1.0001
1.00023
1.00039
1.00054
1.00065
1.00069
1.00066
1.00051
0.99999
0.999989
0.999987
0.999995
1.00002
1.0001
1.00023
1.0004
1.00056
1.00066
1.00071
1.00068
1.00053
0.99999
0.999989
0.999988
0.999995
1.00003
1.00011
1.00024
1.00041
1.00057
1.00069
1.00074
1.00072
1.0006
0.99999
0.999989
0.999988
0.999996
1.00003
1.00011
1.00025
1.00043
1.00059
1.00071
1.00077
1.00076
1.00073
0.99999
0.999989
0.999988
0.999997
1.00003
1.00012
1.00026
1.00045
1.00061
1.00074
1.0008
1.00081
1.00083
0.99999
0.999989
0.999989
0.999998
1.00003
1.00013
1.00028
1.00047
1.00064
1.00077
1.00083
1.00086
1.00087
0.999988
0.999987
0.999986
0.999996
1.00003
1.00013
1.00029
1.00048
1.00067
1.0008
1.00087
1.00089
1.0009
0.999981
0.99998
0.999978
0.999988
1.00003
1.00013
1.00029
1.0005
1.00068
1.00082
1.0009
1.00092
1.00094
0.999962
0.99996
0.999957
0.999965
1
1.00011
1.00028
1.00049
1.00068
1.00082
1.0009
1.00094
1.00096
0.999932
0.999927
0.999922
0.999929
0.999967
1.00007
1.00024
1.00046
1.00066
1.0008
1.00088
1.00093
1.00098
0.999892
0.999885
0.999877
0.999882
0.999918
1.00003
1.0002
1.00042
1.00061
1.00075
1.00083
1.00088
1.00095
0.999855
0.999845
0.999835
0.999838
0.999873
0.999978
1.00015
1.00036
1.00054
1.00068
1.00076
1.00082
1.00089
0.999827
0.999816
0.999804
0.999805
0.999837
0.999936
1.00009
1.00029
1.00047
1.0006
1.00068
1.00073
1.00081
0.999811
0.999799
0.999787
0.999786
0.999813
0.9999
1.00004
1.00022
1.00038
1.0005
1.00058
1.00064
1.00071
0.999807
0.999794
0.999781
0.999778
0.999797
0.999866
0.999982
1.00014
1.00029
1.00041
1.00049
1.00055
1.00059
0.999807
0.999793
0.99978
0.999773
0.99978
0.999823
0.999908
1.00003
1.00018
1.00031
1.00041
1.00046
1.00046
0.999998
0.999998
0.999997
1
1.00003
1.0001
1.00021
1.00036
1.0005
1.0006
1.00065
1.00066
1.00068
0.999998
0.999998
0.999997
1
1.00003
1.0001
1.00021
1.00036
1.0005
1.0006
1.00065
1.00066
1.0007
0.999998
0.999997
0.999997
1
1.00003
1.0001
1.00022
1.00036
1.0005
1.0006
1.00065
1.00067
1.00071
0.999998
0.999997
0.999997
1
1.00003
1.0001
1.00022
1.00037
1.00051
1.00061
1.00067
1.00068
1.00072
0.999998
0.999997
0.999997
1
1.00003
1.00011
1.00023
1.00038
1.00053
1.00063
1.00068
1.0007
1.00073
0.999998
0.999998
0.999997
1.00001
1.00004
1.00011
1.00024
1.0004
1.00055
1.00065
1.00071
1.00072
1.00073
0.999998
0.999998
0.999997
1.00001
1.00004
1.00012
1.00025
1.00041
1.00057
1.00068
1.00074
1.00076
1.00077
0.999998
0.999998
0.999997
1.00001
1.00004
1.00012
1.00026
1.00043
1.00059
1.00071
1.00077
1.00078
1.00078
0.999998
0.999998
0.999997
1.00001
1.00004
1.00013
1.00027
1.00045
1.00062
1.00074
1.0008
1.00081
1.00081
0.999996
0.999995
0.999995
1
1.00004
1.00013
1.00028
1.00047
1.00064
1.00077
1.00084
1.00085
1.00086
0.999988
0.999987
0.999986
0.999996
1.00003
1.00013
1.00028
1.00048
1.00066
1.0008
1.00087
1.00089
1.0009
0.999969
0.999966
0.999964
0.999972
1.00001
1.00011
1.00027
1.00047
1.00066
1.0008
1.00088
1.0009
1.00093
0.999937
0.999933
0.999928
0.999934
0.99997
1.00007
1.00024
1.00045
1.00064
1.00078
1.00086
1.0009
1.00094
0.999897
0.999889