# vtk DataFile Version 2.0
I need something to put here
ASCII

DATASET STRUCTURED_GRID
DIMENSIONS 14 20 40
POINTS 11200 float
0.000000 0.500000 0.000000
0.025000 0.500000 0.000000
0.050000 0.500000 0.000000
0.075000 0.500000 0.000000
0.100000 0.500000 0.000000
0.125000 0.500000 0.000000
0.150000 0.500000 0.000000
0.175000 0.500000 0.000000
0.200000 0.500000 0.000000
0.225000 0.500000 0.000000
0.250000 0.500000 0.000000
0.275000 0.500000 0.000000
0.300000 0.500000 0.000000
0.325000 0.500000 0.000000
0.000000 0.525000 0.000000
0.025000 0.525000 0.000000
0.050000 0.525000 0.000000
0.075000 0.525000 0.000000
0.100000 0.525000 0.000000
0.125000 0.525000 0.000000
0.150000 0.525000 0.000000
0.175000 0.525000 0.000000
0.200000 0.525000 0.000000
0.225000 0.525000 0.000000
0.250000 0.525000 0.000000
0.275000 0.525000 0.000000
0.300000 0.525000 0.000000
0.325000 0.525000 0.000000
0.000000 0.550000 0.000000
0.025000 0.550000 0.000000
0.050000 0.550000 0.000000
0.075000 0.550000 0.000000
0.100000 0.550000 0.000000
0.125000 0.550000 0.000000
0.150000 0.550000 0.000000
0.175000 0.550000 0.000000
0.200000 0.550000 0.000000
0.225000 0.550000 0.000000
0.250000 0.550000 0.000000
0.275000 0.550000 0.000000
0.300000 0.550000 0.000000
0.325000 0.550000 0.000000
0.000000 0.575000 0.000000
0.025000 0.575000 0.000000
0.050000 0.575000 0.000000
0.075000 0.575000 0.000000
0.100000 0.575000 0.000000
0.125000 0.575000 0.000000
0.150000 0.575000 0.000000
0.175000 0.575000 0.000000
0.200000 0.575000 0.000000
0.225000 0.575000 0.000000
0.250000 0.575000 0.000000
0.275000 0.575000 0.000000
0.300000 0.575000 0.000000
0.325000 0.575000 0.000000
0.000000 0.600000 0.000000
0.025000 0.600000 0.000000
0.050000 0.600000 0.000000
0.075000 0.600000 0.000000
0.100000 0.600000 0.000000
0.125000 0.600000 0.000000
0.150000 0.600000 0.000000
0.175000 0.600000 0.000000
0.200000 0.600000 0.000000
0.225000 0.600000 0.000000
0.250000 0.600000 0.000000
0.275000 0.600000 0.000000
0.300000 0.600000 0.000000
0.325000 0.600000 0.000000
0.000000 0.625000 0.000000
0.025000 0.625000 0.000000
0.050000 0.625000 0.000000
0.075000 0.625000 0.000000
0.100000 0.625000 0.000000
0.125000 0.625000 0.000000
0.150000 0.625000 0.000000
0.175000 0.625000 0.000000
0.200000 0.625000 0.000000
0.225000 0.625000 0.000000
0.250000 0.625000 0.000000
0.275000 0.625000 0.000000
0.300000 0.625000 0.000000
0.325000 0.625000 0.000000
0.000000 0.650000 0.000000
0.025000 0.650000 0.000000
0.050000 0.650000 0.000000
0.075000 0.650000 0.000000
0.100000 0.650000 0.000000
0.125000 0.650000 0.000000
0.150000 0.650000 0.000000
0.175000 0.650000 0.000000
0.200000 0.650000 0.000000
0.225000 0.650000 0.000000
0.250000 0.650000 0.000000
0.275000 0.650000 0.000000
0.300000 0.650000 0.000000
0.325000 0.650000 0.000000
0.000000 0.675000 0.000000
0.025000 0.675000 0.000000
0.050000 0.675000 0.000000
0.075000 0.675000 0.000000
0.100000 0.675000 0.000000
0.125000 0.675000 0.000000
0.150000 0.675000 0.000000
0.175000 0.675000 0.000000
0.200000 0.675000 0.000000
0.225000 0.675000 0.000000
0.250000 0.675000 0.000000
0.275000 0.675000 0.000000
0.300000 0.675000 0.000000
0.325000 0.675000 0.000000
0.000000 0.700000 0.000000
0.025000 0.700000 0.000000
0.050000 0.700000 0.000000
0.075000 0.700000 0.000000
0.100000 0.700000 0.000000
0.125000 0.700000 0.000000
0.150000 0.700000 0.000000
0.175000 0.700000 0.000000
0.200000 0.700000 0.000000
0.225000 0.700000 0.000000
0.250000 0.700000 0.000000
0.275000 0.700000 0.000000
0.300000 0.700000 0.000000
0.325000 0.700000 0.000000
0.000000 0.725000 0.000000
0.025000 0.725000 0.000000
0.050000 0.725000 0.000000
0.075000 0.725000 0.000000
0.100000 0.725000 0.000000
0.125000 0.725000 0.000000
0.150000 0.725000 0.000000
0.175000 0.725000 0.000000
0.200000 0.725000 0.000000
0.225000 0.725000 0.000000
0.250000 0.725000 0.000000
0.275000 0.725000 0.000000
0.300000 0.725000 0.000000
0.325000 0.725000 0.000000
0.000000 0.750000 0.000000
0.025000 0.750000 0.000000
0.050000 0.750000 0.000000
0.075000 0.750000 0.000000
0.100000 0.750000 0.000000
0.125000 0.750000 0.000000
0.150000 0.750000 0.000000
0.175000 0.750000 0.000000
0.200000 0.750000 0.000000
0.225000 0.750000 0.000000
0.250000 0.750000 0.000000
0.275000 0.750000 0.000000
0.300000 0.750000 0.000000
0.325000 0.750000 0.000000
0.000000 0.775000 0.000000
0.025000 0.775000 0.000000
0.050000 0.775000 0.000000
0.075000 0.775000 0.000000
0.100000 0.775000 0.000000
0.125000 0.775000 0.000000
0.150000 0.775000 0.000000
0.175000 0.775000 0.000000
0.200000 0.775000 0.000000
0.225000 0.775000 0.000000
0.250000 0.775000 0.000000
0.275000 0.775000 0.000000
0.300000 0.775000 0.000000
0.325000 0.775000 0.000000
0.000000 0.800000 0.000000
0.025000 0.800000 0.000000
0.050000 0.800000 0.000000
0.075000 0.800000 0.000000
0.100000 0.800000 0.000000
0.125000 0.800000 0.000000
0.150000 0.800000 0.000000
0.175000 0.800000 0.000000
0.200000 0.800000 0.000000
0.225000 0.800000 0.000000
0.250000 0.800000 0.000000
0.275000 0.800000 0.000000
0.300000 0.800000 0.000000
0.325000 0.800000 0.000000
0.000000 0.825000 0.000000
0.025000 0.825000 0.000000
0.050000 0.825000 0.000000
0.075000 0.825000 0.000000
0.100000 0.825000 0.000000
0.125000 0.825000 0.000000
0.150000 0.825000 0.000000
0.175000 0.825000 0.000000
0.200000 0.825000 0.000000
0.225000 0.825000 0.000000
0.250000 0.825000 0.000000
0.275000 0.825000 0.000000
0.300000 0.825000 0.000000
0.325000 0.825000 0.000000
0.000000 0.850000 0.000000
0.025000 0.850000 0.000000
0.050000 0.850000 0.000000
0.075000 0.850000 0.000000
0.100000 0.850000 0.000000
0.125000 0.850000 0.000000
0.150000 0.850000 0.000000
0.175000 0.850000 0.000000
0.200000 0.850000 0.000000
0.225000 0.850000 0.000000
0.250000 0.850000 0.000000
0.275000 0.850000 0.000000
0.300000 0.850000 0.000000
0.325000 0.850000 0.000000
0.000000 0.875000 0.000000
0.025000 0.875000 0.000000
0.050000 0.875000 0.000000
0.075000 0.875000 0.000000
0.100000 0.875000 0.000000
0.125000 0.875000 0.000000
0.150000 0.875000 0.000000
0.175000 0.875000 0.000000
0.200000 0.875000 0.000000
0.225000 0.875000 0.000000
0.250000 0.875000 0.000000
0.275000 0.875000 0.000000
0.300000 0.875000 0.000000
0.325000 0.875000 0.000000
0.000000 0.900000 0.000000
0.025000 0.900000 0.000000
0.050000 0.900000 0.000000
0.075000 0.900000 0.000000
0.100000 0.900000 0.000000
0.125000 0.900000 0.000000
0.150000 0.900000 0.000000
0.175000 0.900000 0.000000
0.200000 0.900000 0.000000
0.225000 0.900000 0.000000
0.250000 0.900000 0.000000
0.275000 0.900000 0.000000
0.300000 0.900000 0.000000
0.325000 0.900000 0.000000
0.000000 0.925000 0.000000
0.025000 0.925000 0.000000
0.050000 0.925000 0.000000
0.075000 0.925000 0.000000
0.100000 0.925000 0.000000
0.125000 0.925000 0.000000
0.150000 0.925000 0.000000
0.175000 0.925000 0.000000
0.200000 0.925000 0.000000
0.225000 0.925000 0.000000
0.250000 0.925000 0.000000
0.275000 0.925000 0.000000
0.300000 0.925000 0.000000
0.325000 0.925000 0.000000
0.000000 0.950000 0.000000
0.025000 0.950000 0.000000
0.050000 0.950000 0.000000
0.075000 0.950000 0.000000
0.100000 0.950000 0.000000
0.125000 0.950000 0.000000
0.150000 0.950000 0.000000
0.175000 0.950000 0.000000
0.200000 0.950000 0.000000
0.225000 0.950000 0.000000
0.250000 0.950000 0.000000
0.275000 0.950000 0.000000
0.300000 0.950000 0.000000
0.325000 0.950000 0.000000
0.000000 0.975000 0.000000
0.025000 0.975000 0.000000
0.050000 0.975000 0.000000
0.075000 0.975000 0.000000
0.100000 0.975000 0.000000
0.125000 0.975000 0.000000
0.150000 0.975000 0.000000
0.175000 0.975000 0.000000
0.200000 0.975000 0.000000
0.225000 0.975000 0.000000
0.250000 0.975000 0.000000
0.275000 0.975000 0.000000
0.300000 0.975000 0.000000
0.325000 0.975000 0.000000
0.000000 0.500000 0.025000
0.025000 0.500000 0.025000
0.050000 0.500000 0.025000
0.075000 0.500000 0.025000
0.100000 0.500000 0.025000
0.125000 0.500000 0.025000
0.150000 0.500000 0.025000
0.175000 0.500000 0.025000
0.200000 0.500000 0.025000
0.225000 0.500000 0.025000
0.250000 0.500000 0.025000
0.275000 0.500000 0.025000
0.300000 0.500000 0.025000
0.325000 0.500000 0.025000
0.000000 0.525000 0.025000
0.025000 0.525000 0.025000
0.050000 0.525000 0.025000
0.075000 0.525000 0.025000
0.100000 0.525000 0.025000
0.125000 0.525000 0.025000
0.150000 0.525000 0.025000
0.175000 0.525000 0.025000
0.200000 0.525000 0.025000
0.225000 0.525000 0.025000
0.250000 0.525000 0.025000
0.275000 0.525000 0.025000
0.300000 0.525000 0.025000
0.325000 0.525000 0.025000
0.000000 0.550000 0.025000
0.025000 0.550000 0.025000
0.050000 0.550000 0.025000
0.075000 0.550000 0.025000
0.100000 0.550000 0.025000
0.125000 0.550000 0.025000
0.150000 0.550000 0.025000
0.175000 0.550000 0.025000
0.200000 0.550000 0.025000
0.225000 0.550000 0.025000
0.250000 0.550000 0.025000
0.275000 0.550000 0.025000
0.300000 0.550000 0.025000
0.325000 0.550000 0.025000
0.000000 0.575000 0.025000
0.025000 0.575000 0.025000
0.050000 0.575000 0.025000
0.075000 0.575000 0.025000
0.100000 0.575000 0.025000
0.125000 0.575000 0.025000
0.150000 0.575000 0.025000
0.175000 0.575000 0.025000
0.200000 0.575000 0.025000
0.225000 0.575000 0.025000
0.250000 0.575000 0.025000
0.275000 0.575000 0.025000
0.300000 0.575000 0.025000
0.325000 0.575000 0.025000
0.000000 0.600000 0.025000
0.025000 0.600000 0.025000
0.050000 0.600000 0.025000
0.075000 0.600000 0.025000
0.100000 0.600000 0.025000
0.125000 0.600000 0.025000
0.150000 0.600000 0.025000
0.175000 0.600000 0.025000
0.200000 0.600000 0.025000
0.225000 0.600000 0.025000
0.250000 0.600000 0.025000
0.275000 0.600000 0.025000
0.300000 0.600000 0.025000
0.325000 0.600000 0.025000
0.000000 0.625000 0.025000
0.025000 0.625000 0.025000
0.050000 0.625000 0.025000
0.075000 0.625000 0.025000
0.100000 0.625000 0.025000
0.125000 0.625000 0.025000
0.150000 0.625000 0.025000
0.175000 0.625000 0.025000
0.200000 0.625000 0.025000
0.225000 0.625000 0.025000
0.250000 0.625000 0.025000
0.275000 0.625000 0.025000
0.300000 0.625000 0.025000
0.325000 0.625000 0.025000
0.000000 0.650000 0.025000
[...]
CELL_DATA 9633
SCALARS density float 1
LOOKUP_TABLE default
0.999376
0.999381
0.999385
0.999397
0.999414
0.999439
0.999468
0.999508
0.99956
0.999626
0.999703
0.999781
0.999849
0.999354
0.99936
0.99937
0.999387
0.999408
0.999434
0.999463
0.999502
0.999556
0.999624
0.999703
0.99978
0.999849
0.999354
0.99935
0.99936
0.99938
0.999403
0.99943
0.99946
0.9995
0.999554
0.999623
0.999701
0.999779
0.999848
0.999352
0.999344
0.999352
0.999372
0.999397
0.999425
0.999456
0.999497
0.999552
0.99962
0.999699
0.999776
0.999845
0.999349
0.999337
0.999344
0.999364
0.99939
0.99942
0.999451
0.999491
0.999546
0.999616
0.999694
0.999772
0.999841
0.999344
0.999332
0.99934
0.999359
0.999385
0.999413
0.999443
0.999483
0.999538
0.999608
0.999687
0.999765
0.999834
0.999338
0.999328
0.999336
0.999356
0.999379
0.999407
0.999437
0.999477
0.999531
0.999601
0.999679
0.999757
0.999824
0.999334
0.999325
0.999338
0.999356
0.999376
0.999402
0.999431
0.99947
0.999523
0.999593
0.999671
0.999748
0.999814
0.999316
0.999347
0.99935
0.999359
0.999376
0.999399
0.999425
0.999462
0.999514
0.999586
0.999662
0.99974
0.999808
0.999472
0.999401
0.99937
0.999369
0.99938
0.999398
0.999418
0.999449
0.9995
0.999576
0.999657
0.999734
0.999803
0.999474
0.999432
0.999389
0.999379
0.999387
0.999404
0.999422
0.999453
0.999501
0.999577
0.999654
0.99973
0.999798
0.999488
0.999441
0.999404
0.999391
0.999397
0.999413
0.999433
0.999464
0.999512
0.999582
0.999656
0.999729
0.999795
0.999485
0.999451
0.999415
0.999403
0.999409
0.999427
0.999449
0.999482
0.999529
0.999594
0.999664
0.999733
0.999796
0.999479
0.99946
0.999427
0.999416
0.999424
0.999443
0.999468
0.999501
0.999546
0.999609
0.999675
0.99974
0.999798
0.999485
0.999472
0.999443
0.999433
0.999443
0.999464
0.999491
0.999524
0.999569
0.99963
0.999689
0.999746
0.999797
0.999501
0.999489
0.999457
0.999451
0.999464
0.999487
0.999516
0.999552
0.999596
0.999652
0.999704
0.999747
0.999787
0.999529
0.999493
0.99947
0.999471
0.999487
0.999512
0.999544
0.999581
0.999625
0.999676
0.99972
0.999748
0.999749
0.999444
0.999479
0.999484
0.999493
0.999512
0.999539
0.999572
0.999609
0.999652
0.999699
0.999737
0.999752
0.999697
0.999512
0.999496
0.999508
0.999522
0.999543
0.99957
0.999602
0.999637
0.999677
0.99972
0.999753
0.999758
0.999689
0.999304
0.999341
0.999351
0.999363
0.999375
0.999392
0.999415
0.999447
0.999494
0.999557
0.999637
0.999722
0.999804
0.999298
0.999327
0.999344
0.99936
0.999376
0.999394
0.999418
0.999449
0.999497
0.999559
0.999638
0.999723
0.999805
0.999299
0.99932
0.999336
0.999354
0.999372
0.999392
0.999417
0.999449
0.999497
0.999559
0.999638
0.999722
0.999803
0.999299
0.999314
0.999329
0.999348
0.999367
0.999388
0.999414
0.999446
0.999494
0.999557
0.999635
0.999719
0.9998
0.999294
0.999309
0.999323
0.999342
0.999361
0.999383
0.999409
0.999442
0.99949
0.999553
0.999631
0.999714
0.999796
0.999289
0.999304
0.999319
0.999338
0.999357
0.999378
0.999403
0.999436
0.999483
0.999546
0.999624
0.999707
0.999789
0.999281
0.999303
0.99932
0.999337
0.999354
0.999374
0.999398
0.999429
0.999476
0.999538
0.999616
0.999699
0.99978
0.99928
0.99932
0.999327
0.999339
0.999353
0.999371
0.999394
0.999423
0.999468
0.99953
0.999606
0.99969
0.999774
0.999357
0.999351
0.999341
0.999346
0.999356
0.999371
0.999391
0.999418
0.999462
0.999522
0.999599
0.999681
0.999763
0.99954
0.999397
0.999362
0.999357
0.999362
0.999374
0.999391
0.999416
0.999458
0.999517
0.999593
0.999675
0.999756
0.999665
0.999442
0.999382
0.99937
0.999372
0.999383
0.999399
0.999422
0.999462
0.999519
0.999593
0.999673
0.999752
0.999681
0.999478
0.999403
0.999385
0.999386
0.999396
0.999412
0.999435
0.999473
0.999528
0.999598
0.999675
0.999752
0.999695
0.999493
0.999421
0.999401
0.999401
0.999413
0.999431
0.999454
0.999492
0.999544
0.99961
0.999683
0.999756
0.999705
0.999507
0.999436
0.999417
0.999419
0.999432
0.999452
0.999478
0.999515
0.999564
0.999626
0.999694
0.999762
0.999728
0.999521
0.999448
0.999432
0.999437
0.999453
0.999476
0.999503
0.99954
0.999588
0.999646
0.999707
0.999768
0.99975
0.99952
0.999458
0.999447
0.999456
0.999475
0.9995
0.99953
0.999568
0.999613
0.999666
0.99972
0.999771
0.999698
0.999513
0.999467
0.999463
0.999475
0.999496
0.999524
0.999557
0.999596
0.99964
0.999687
0.99973
0.999771
0.999541
0.999504
0.999481
0.999481
0.999495
0.999519
0.999549
0.999584
0.999625
0.999669
0.99971
0.999738
0.999743
0.999466
0.999497
0.999493
0.999499
0.999517
0.999544
0.999576
0.999613
0.999656
0.999701
0.99974
0.999761
0.999755
0.999265
0.999312
0.99933
0.99934
0.999349
0.99936
0.999376
0.9994
0.99944
0.999499
0.999579
0.999671
0.999765
0.999251
0.999298
0.999319
0.999337
0.99935
0.999362
0.999379
0.999403
0.999443
0.999501
0.999581
0.999672
0.999765
0.999254
0.99929
0.999313
0.999331
0.999346
0.999361
0.999379
0.999403
0.999444
0.999502
0.999581
0.999671
0.999764
0.999252
0.999285
0.999305
0.999325
0.999341
0.999357
0.999376
0.999401
0.999442
0.9995
0.999579
0.999669
0.999761
0.999248
0.999279
0.9993
0.99932
0.999336
0.999352
0.999371
0.999397
0.999438
0.999495
0.999574
0.999664
0.999756
0.999243
0.999275
0.999296
0.999315
0.999331
0.999347
0.999366
0.999391
0.999432
0.999489
0.999567
0.999656
0.999748
0.999235
0.999271
0.999292
0.999313
0.999329
0.999344
0.999362
0.999386
0.999425
0.999481
0.999558
0.999647
0.99974
0.999228
0.999266
0.999295
0.999315
0.99933
0.999343
0.999359
0.999381
0.999418
0.999472
0.999549
0.999638
0.999731
0.999199
0.999275
0.999304
0.999322
0.999334
0.999345
0.999359
0.999378
0.999413
0.999466
0.999541
0.999629
0.999721
0.999269
0.999308
0.999321
0.999333
0.999342
0.999351
0.999364
0.999381
0.999413
0.999463
0.999536
0.999623
0.999714
0.999247
0.999328
0.999339
0.999347
0.999354
0.999362
0.999374
0.999389
0.99942
0.999467
0.999538
0.999622
0.999711
0.999254
0.999334
0.999353
0.999362
0.999369
0.999378
0.99939
0.999405
0.999434
0.999479
0.999546
0.999627
0.999713
0.999262
0.999346
0.999366
0.999377
0.999386
0.999398
0.999411
0.999428
0.999456
0.999499
0.999562
0.999638
0.99972
0.999279
0.999361
0.999381
0.999394
0.999405
0.999419
0.999435
0.999454
0.999483
0.999524
0.999584
0.999655
0.999731
0.999299
0.999377
0.999398
0.99941
0.999423
0.99944
0.99946
0.999481
0.999512
0.999552
0.999608
0.999674
0.999743
0.999322
0.999401
0.999412
0.999425
0.99944
0.999459
0.999483
0.999508
0.999541
0.999581
0.999635
0.999694
0.999756
0.999395
0.99941
0.999425
0.999439
0.999456
0.999478
0.999504
0.999533
0.99957
0.999611
0.999661
0.999715
0.999767
0.999342
0.999427
0.999442
0.999454
0.999472
0.999497
0.999527
0.99956
0.999599
0.999643
0.999691
0.999734
0.999776
0.999418
0.999438
0.999456
0.99947
0.999492
0.99952
0.999553
0.99959
0.999634
0.999682
0.99973
0.999773
0.999809
0.999244
0.999303
0.999312
0.999321
0.999326
0.999332
0.99934
0.999356
0.99939
0.999446
0.999528
0.999627
0.999731
0.999226
0.999271
0.999301
0.999317
0.999326
0.999333
0.999342
0.999359
0.999393
0.999448
0.99953
0.999628
0.999731
0.999218
0.999267
0.999291
0.999311
0.999322
0.999331
0.999342
0.999359
0.999394
0.999449
0.99953
0.999627
0.99973
0.999216
0.999257
0.999284
0.999304
0.999317
0.999327
0.999339
0.999357
0.999392
0.999447
0.999528
0.999624
0.999727
0.999212
0.999254
0.999278
0.999298
0.999311
0.999322
0.999334
0.999352
0.999388
0.999442
0.999523
0.999619
0.999721
0.999208
0.999249
0.999273
0.999293
0.999306
0.999317
0.999329
0.999347
0.999382
0.999435
0.999515
0.999611
0.999713
0.999199
0.999244
0.99927
0.999291
0.999304
0.999314
0.999325
0.999342
0.999375
0.999427
0.999506
0.999601
0.999703
0.99919
0.999241
0.99927
0.999292
0.999305
0.999314
0.999324
0.999337
0.999368
0.999418
0.999496
0.999591
0.999693
0.999185
0.99924
0.999275
0.999298
0.99931
0.999318
0.999325
0.999337
0.999365
0.999412
0.999488
0.999581
0.999683
0.999197
0.999262
0.999289
0.999309
0.999319
0.999326
0.999332
0.999341
0.999366
0.999411
0.999484
0.999575
0.999676
0.999196
0.999268
0.999302
0.999321
0.999332
0.999338
0.999345
0.999353
0.999375
0.999417
0.999487
0.999575
0.999674
0.999195
0.999276
0.999313
0.999336
0.999348
0.999356
0.999363
0.999372
0.999393
0.999432
0.999498
0.999583
0.999678
0.999199
0.999284
0.999326
0.999351
0.999366
0.999377
0.999387
0.999397
0.999419
0.999455
0.999518
0.999598
0.999688
0.999214
0.999299
0.999341
0.999368
0.999386
0.9994
0.999414
0.999427
0.99945
0.999485
0.999544
0.999619
0.999703
0.99923
0.999315
0.999355
0.999384
0.999404
0.999421
0.999439
0.999456
0.999482
0.999518
0.999574
0.999644
0.999721
0.99925
0.999328
0.999374
0.9994
0.999419
0.999439
0.999462
0.999483
0.999513
0.999551
0.999605
0.999671
0.999742
0.999246
0.999361
0.999391
0.999412
0.999432
0.999455
0.999481
0.999508
0.999542
0.999583
0.999638
0.999699
0.999764
0.999389
0.999393
0.999405
0.999423
0.999445
0.999471
0.999501
0.999533
0.999573
0.999618
0.999673
0.999734
0.99979
0.999432
0.999434
0.999425
0.999442
0.999467
0.999497
0.999531
0.999568
0.999612
0.999663
0.99972
0.999781
0.999856
0.999293
0.999291
0.999296
0.999303
0.999304
0.999303
0.999304
0.999313
0.999343
0.999398
0.999484
0.999589
0.999702
0.999184
0.999264
0.999286
0.999299
0.999303
0.999303
0.999306
0.999315
0.999346
0.9994
0.999486
0.999591
0.999703
0.9992
0.999245
0.999277
0.999293
0.999299
0.999301
0.999305
0.999315
0.999346
0.9994
0.999486
0.99959
0.999701
0.99918
0.999239
0.999267
0.999286
0.999293
0.999296
0.999301
0.999313
0.999344
0.999398
0.999483
0.999586
0.999698
0.999193
0.999234
0.99926
0.999278
0.999287
0.999291
0.999296
0.999308
0.999339
0.999393
0.999477
0.99958
0.999691
0.999184
0.99923
0.999254
0.999273
0.999281
0.999286
0.999291
0.999302
0.999332
0.999385
0.999469
0.999571
0.999682
0.999175
0.999224
0.999251
0.99927
0.999278
0.999283
0.999287
0.999297
0.999325
0.999376
0.999458
0.99956
0.999672
0.999168
0.999221
0.999251
0.999271
0.999279
0.999283
0.999286
0.999293
0.999319
0.999367
0.999448
0.999549
0.99966
0.999166
0.999222
0.999253
0.999275
0.999284
0.999287
0.999288
0.999293
0.999316
0.999361
0.999439
0.999539
0.99965
0.999171
0.99923
0.999264
0.999285
0.999294
0.999296
0.999296
0.999299
0.999318
0.99936
0.999436
0.999533
0.999643
0.999179
0.999238
0.999273
0.999296
0.999307
0.99931
0.99931
0.999312
0.999329
0.999368
0.999439
0.999534
0.999641
0.999177
0.999244
0.999283
0.999309
0.999323
0.999329
0.999331
0.999333
0.999349
0.999385
0.999453
0.999543
0.999646
0.999172
0.99925
0.999295
0.999325
0.999342
0.999352
0.999358
0.999362
0.999378
0.999412
0.999475
0.99956
0.999659
0.999185
0.999262
0.999309
0.999343
0.999362
0.999376
0.999387
0.999395
0.999413
0.999446
0.999506
0.999585
0.999678
0.999199
0.999278
0.999327
0.999359
0.999381
0.999398
0.999413
0.999427
0.999449
0.999483
0.999541
0.999615
0.999701
0.999216
0.999309
0.999345
0.999373
0.999394
0.999415
0.999436
0.999455
0.999482
0.999519
0.999577
0.999649
0.999728
0.9993
0.999341
0.999357
0.999379
0.999402
0.999426
0.999452
0.999478
0.999511
0.999553
0.999613
0.999686
0.999763
0.99948
0.999358
0.999355
0.999375
0.999399
0.999428
0.999459
0.999493
0.999535
0.999584
0.999647
0.999721
0.999817
0.999535
0.99935
0.999329
0.999346
0.999376
0.999412
0.999451
0.999496
0.999548
0.999608
0.999675
0.99975
0.999861
0.999298
0.999282
0.999282
0.999285
0.999281
0.999274
0.999268
0.999272
0.9993
0.999356
0.999447
0.999559
0.99968
0.999244
0.99926
0.999275
0.999282
0.99928
0.999273
0.999269
0.999274
0.999302
0.999358
0.999449
0.99956
0.99968
0.999187
0.99925
0.999266
0.999276
0.999275
0.999271
0.999268
0.999273
0.999302
0.999358
0.999448
0.999559
0.999679
0.999174
0.999233
0.999258
0.999268
0.999269
0.999266
0.999264
0.99927
0.999299
0.999355
0.999445
0.999555
0.999674
0.999175
0.999225
0.999248
0.999261
0.999262
0.999259
0.999258
0.999265
0.999293
0.999349
0.999438
0.999548
0.999667
0.999176
0.999218
0.999241
0.999254
0.999256
0.999254
0.999252
0.999258
0.999286
0.99934
0.999429
0.999539
0.999658
0.999167
0.999214
0.999236
0.99925
0.999253
0.99925
0.999248
0.999252
0.999278
0.99933
0.999417
0.999527
0.999646
0.999159
0.99921
0.999236
0.999251
0.999253
0.99925
0.999246
0.999248
0.999271
0.999321
0.999406
0.999514
0.999634
0.999152
0.999208
0.999236
0.999254
0.999258
0.999254
0.999249
0.999248
0.999268
0.999314
0.999397
0.999504
0.999623
0.999163
0.999215
0.999243
0.999262
0.999267
0.999264
0.999258
0.999254
0.999271
0.999313
0.999393
0.999497
0.999615
0.999174
0.999219
0.99925
0.999272
0.999279
0.999278
0.999273
0.999269
0.999283
0.999321
0.999397
0.999498
0.999613
0.999175
0.999223
0.999259
0.999285
0.999296
0.999298
0.999295
0.999292
0.999305
0.99934
0.999411
0.999508
0.999619
0.999162
0.999229
0.99927
0.9993
0.999315
0.999322
0.999323
0.999323
0.999336
0.999369
0.999436
0.999527
0.999633
0.999162
0.999239
0.999284
0.999317
0.999336
0.999348
0.999355
0.999359
0.999374
0.999406
0.999469
0.999555
0.999654
0.999174
0.999251
0.999297
0.999333
0.999355
0.999371
0.999384
0.999394
0.999414
0.999447
0.999508
0.999588
0.99968
0.99919
0.999261
0.999311
0.999346
0.99937
0.99939
0.999409
0.999426
0.999451
0.999488
0.999548
0.999624
0.99971
0.999183
0.999281
0.999326
0.999356
0.99938
0.999403
0.999428
0.999452
0.999485
0.999528
0.99959
0.999663
0.999744
0.99929
0.999322
0.999337
0.999359
0.999384
0.999412
0.999442
0.999475
0.999516
0.999567
0.999633
0.999709
0.999782
0.999316
0.999337
0.999338
0.999358
0.999386
0.999419
0.999456
0.999497
0.999547
0.999608
0.999679
0.999757
0.999849
0.999265
0.999268
0.999271
0.999269
0.999259
0.999245
0.999235
0.999236
0.999264
0.999323
0.99942
0.999538
0.999664
0.999193
0.999262
0.999267
0.999266
0.999257
0.999245
0.999235
0.999237
0.999265
0.999325
0.999421
0.999539
0.999665
0.999217
0.999245
0.99926
0.99926
0.999252
0.999241
0.999233
0.999235
0.999264
0.999324
0.99942
0.999537
0.999663
0.999206
0.99924
0.999249
0.999253
0.999246
0.999235
0.999228
0.999231
0.99926
0.99932
0.999415
0.999533
0.999658
0.999204
0.999233
0.999242
0.999244
0.999238
0.999228
0.999221
0.999225
0.999254
0.999313
0.999408
0.999525
0.99965
0.999191
0.999224
0.999234
0.999237
0.999231
0.999222
0.999215
0.999217
0.999245
0.999303
0.999397
0.999514
0.99964
0.999183
0.999217
0.99923
0.999233
0.999228
0.999218
0.99921
0.99921
0.999236
0.999292
0.999385
0.999501
0.999627
0.999172
0.999216
0.999226
0.999232
0.999228
0.999218
0.999208
0.999206
0.999228
0.999281
0.999372
0.999488
0.999614
0.99916
0.999196
0.999223
0.999235
0.999232
0.999222
0.99921
0.999205
0.999224
0.999274
0.999362
0.999477
0.999602
0.99916
0.999205
0.999227
0.999241
0.999241
0.999231
0.999219
0.999212
0.999227
0.999272
0.999358
0.999469
0.999594
0.999165
0.999208
0.999234
0.99925
0.999253
0.999246
0.999235
0.999227
0.999239
0.99928
0.999361
0.99947
0.999592
0.99916
0.999211
0.999241
0.999263
0.999269
0.999266
0.999258
0.999251
0.999262
0.9993
0.999376
0.999479
0.999598
0.999149
0.999212
0.999251
0.999277
0.999289
0.999291
0.999288
0.999284
0.999296
0.99933
0.999402
0.999499
0.999612
0.999154
0.999221
0.999263
0.999294
0.999311
0.999319
0.999322
0.999322
0.999336
0.99937
0.999437
0.999529
0.999635
0.999167
0.999234
0.999277
0.99931
0.999331
0.999344
0.999354
0.999361
0.999379
0.999414
0.999479
0.999564
0.999663
0.999184
0.999249
0.999289
0.999323
0.999347
0.999365
0.999382
0.999396
0.999421
0.99946
0.999523
0.999604
0.999695
0.999208
0.999262
0.999303
0.999335
0.999359
0.999382
0.999404
0.999427
0.99946
0.999505
0.99957
0.999647
0.999731
0.999245
0.999298
0.99932
0.999345
0.999369
0.999396
0.999424
0.999456
0.999498
0.99955
0.999619
0.999694
0.999772
0.999294
0.999313
0.99933
0.999353
0.999381
0.999413
0.999447
0.999486
0.999537
0.9996
0.999674
0.999752
0.999822
0.999241
0.99927
0.999266
0.999256
0.99924
0.999222
0.999208
0.999209
0.999239
0.999303
0.999404
0.999528
0.999658
0.999305
0.999274
0.999263
0.999253
0.999238
0.99922
0.999208
0.999209
0.999239
0.999304
0.999405
0.999528
0.999658
0.99928
0.999279
0.999259
0.999248
0.999233
0.999216
0.999204
0.999206
0.999237
0.999302
0.999403
0.999526
0.999655
0.999276
0.999266
0.999252
0.99924
0.999225
0.99921
0.999198
0.999201
0.999232
0.999296
0.999398
0.999521
0.99965
0.999265
0.999257
0.999243
0.999232
0.999217
0.999202
0.999191
0.999194
0.999224
0.999288
0.999389
0.999513
0.999642
0.999245
0.999245
0.999235
0.999225
0.999211
0.999195
0.999184
0.999185
0.999215
0.999277
0.999378
0.999501
0.999631
0.999238
0.99924
0.999228
0.99922
0.999206
0.99919
0.999178
0.999177
0.999204
0.999265
0.999364
0.999487
0.999618
0.999247
0.999229
0.999222
0.999218
0.999206
0.99919
0.999175
0.999171
0.999195
0.999253
0.99935
0.999473
0.999604
0.999149
0.999206
0.999219
0.99922
0.99921
0.999194
0.999177
0.999171
0.999191
0.999244
0.999339
0.99946
0.999591
0.99918
0.999199
0.999219
0.999226
0.999219
0.999203
0.999186
0.999177
0.999193
0.999242
0.999334
0.999452
0.999582
0.999171
0.999205
0.999223
0.999234
0.999231
0.999218
0.999202
0.999191
0.999205
0.99925
0.999337
0.999452
0.999579
0.999161
0.999205
0.99923
0.999246
0.999247
0.999239
0.999226
0.999217
0.999228
0.999269
0.999351
0.999461
0.999585
0.999151
0.999205
0.999238
0.99926
0.999267
0.999265
0.999257
0.999251
0.999262
0.9993
0.999377
0.999481
0.999599
0.999153
0.999213
0.999251
0.999277
0.99929
0.999293
0.999292
0.999291
0.999305
0.999341
0.999413
0.999511
0.999623
0.999166
0.999225
0.999264
0.999293
0.99931
0.99932
0.999327
0.999332
0.99935
0.999388
0.999457
0.999548
0.999652
0.999186
0.99924
0.999277
0.999307
0.999328
0.999344
0.999357
0.99937
0.999396
0.999436
0.999504
0.99959
0.999685
0.999212
0.999259
0.99929
0.999319
0.999342
0.999363
0.999384
0.999406
0.999439
0.999486
0.999554
0.999636
0.999723
0.999248
0.999281
0.999307
0.999331
0.999355
0.999381
0.999408
0.999439
0.999481
0.999537
0.999608
0.999686
0.999765
0.9993
0.9993
0.999317
0.999342
0.99937
0.999402
0.999434
0.999473
0.999525
0.999591
0.999667
0.999743
0.999811
0.999281
0.999281
0.999262
0.999245
0.999224
0.999203
0.999189
0.999191
0.999225
0.999294
0.999401
0.999528
0.999659
0.99936
0.999285
0.999258
0.999242
0.999222
0.999202
0.999188
0.999191
0.999225
0.999295
0.999401
0.999528
0.999659
0.999428
0.999293
0.999254
0.999235
0.999216
0.999197
0.999184
0.999187
0.999222
0.999292
0.999398
0.999525
0.999656
0.999434
0.999298
0.999249
0.999228
0.999208
0.999189
0.999177
0.999181
0.999216
0.999286
0.999392
0.99952
0.999651
0.999421
0.999291
0.999243
0.999219
0.9992
0.999181
0.999169
0.999172
0.999207
0.999276
0.999383
0.99951
0.999643
0.999402
0.999282
0.999234
0.999212
0.999193
0.999174
0.99916
0.999163
0.999196
0.999264
0.99937
0.999498
0.999631
0.999393
0.999265
0.999226
0.999207
0.999188
0.999169
0.999154
0.999154
0.999185
0.999251
0.999356
0.999484
0.999617
0.999359
0.99925
0.99922
0.999206
0.999188
0.999168
0.999151
0.999148
0.999175
0.999238
0.999341
0.999469
0.999603
0.999256
0.999234
0.99922
0.999209
0.999193
0.999172
0.999153
0.999146
0.999169
0.999228
0.999329
0.999455
0.99959
0.999189
0.99922
0.99922
0.999216
0.999201
0.999181
0.999161
0.999151
0.99917
0.999225
0.999322
0.999446
0.99958
0.999181
0.999205
0.999221
0.999224
0.999214
0.999196
0.999177
0.999166
0.999181
0.999231
0.999324
0.999445
0.999576
0.999166
0.999205
0.999224
0.999235
0.999231
0.999218
0.999202
0.999191
0.999205
0.99925
0.999337
0.999453
0.999581
0.999153
0.999204
0.999232
0.999249
0.999251
0.999244
0.999233
0.999226
0.999239
0.999281
0.999363
0.999472
0.999595
0.999152
0.999211
0.999245
0.999267
0.999274
0.999274
0.99927
0.999267
0.999282
0.999322
0.999399
0.999502
0.999618
0.999165
0.999222
0.999259
0.999283
0.999296
0.999302
0.999306
0.99931
0.999329
0.99937
0.999444
0.999539
0.999648
0.999186
0.999236
0.999268
0.999297
0.999314
0.999327
0.999339
0.999351
0.999377
0.999421
0.999493
0.999583
0.999682
0.999214
0.999255
0.999284
0.999309
0.99933
0.999349
0.999368
0.999389
0.999424
0.999474
0.999546
0.999631
0.999721
0.999253
0.999277
0.999298
0.999323
0.999346
0.99937
0.999396
0.999427
0.999471
0.999528
0.999603
0.999684
0.999764
0.999305
0.999298
0.999311
0.999334
0.999362
0.999394
0.999427
0.999466
0.999519
0.999586
0.999665
0.999742
0.99981
0.999215
0.999248
0.999246
0.999233
0.999213
0.999192
0.999179
0.999185
0.999223
0.999298
0.999407
0.999536
0.999667
0.999209
0.999242
0.99924
0.999229
0.999209
0.99919
0.999177