# vtk DataFile Version 2.0
I need something to put here
ASCII

DATASET STRUCTURED_GRID
DIMENSIONS 14 20 40
POINTS 11200 float
0.650000 0.500000 0.000000
0.675000 0.500000 0.000000
0.700000 0.500000 0.000000
0.725000 0.500000 0.000000
0.750000 0.500000 0.000000
0.775000 0.500000 0.000000
0.800000 0.500000 0.000000
0.825000 0.500000 0.000000
0.850000 0.500000 0.000000
0.875000 0.500000 0.000000
0.900000 0.500000 0.000000
0.925000 0.500000 0.000000
0.950000 0.500000 0.000000
0.975000 0.500000 0.000000
0.650000 0.525000 0.000000
0.675000 0.525000 0.000000
0.700000 0.525000 0.000000
0.725000 0.525000 0.000000
0.750000 0.525000 0.000000
0.775000 0.525000 0.000000
0.800000 0.525000 0.000000
0.825000 0.525000 0.000000
0.850000 0.525000 0.000000
0.875000 0.525000 0.000000
0.900000 0.525000 0.000000
0.925000 0.525000 0.000000
0.950000 0.525000 0.000000
0.975000 0.525000 0.000000
0.650000 0.550000 0.000000
0.675000 0.550000 0.000000
0.700000 0.550000 0.000000
0.725000 0.550000 0.000000
0.750000 0.550000 0.000000
0.775000 0.550000 0.000000
0.800000 0.550000 0.000000
0.825000 0.550000 0.000000
0.850000 0.550000 0.000000
0.875000 0.550000 0.000000
0.900000 0.550000 0.000000
0.925000 0.550000 0.000000
0.950000 0.550000 0.000000
0.975000 0.550000 0.000000
0.650000 0.575000 0.000000
0.675000 0.575000 0.000000
0.700000 0.575000 0.000000
0.725000 0.575000 0.000000
0.750000 0.575000 0.000000
0.775000 0.575000 0.000000
0.800000 0.575000 0.000000
0.825000 0.575000 0.000000
0.850000 0.575000 0.000000
0.875000 0.575000 0.000000
0.900000 0.575000 0.000000
0.925000 0.575000 0.000000
0.950000 0.575000 0.000000
0.975000 0.575000 0.000000
0.650000 0.600000 0.000000
0.675000 0.600000 0.000000
0.700000 0.600000 0.000000
0.725000 0.600000 0.000000
0.750000 0.600000 0.000000
0.775000 0.600000 0.000000
0.800000 0.600000 0.000000
0.825000 0.600000 0.000000
0.850000 0.600000 0.000000
0.875000 0.600000 0.000000
0.900000 0.600000 0.000000
0.925000 0.600000 0.000000
0.950000 0.600000 0.000000
0.975000 0.600000 0.000000
0.650000 0.625000 0.000000
0.675000 0.625000 0.000000
0.700000 0.625000 0.000000
0.725000 0.625000 0.000000
0.750000 0.625000 0.000000
0.775000 0.625000 0.000000
0.800000 0.625000 0.000000
0.825000 0.625000 0.000000
0.850000 0.625000 0.000000
0.875000 0.625000 0.000000
0.900000 0.625000 0.000000
0.925000 0.625000 0.000000
0.950000 0.625000 0.000000
0.975000 0.625000 0.000000
0.650000 0.650000 0.000000
0.675000 0.650000 0.000000
0.700000 0.650000 0.000000
0.725000 0.650000 0.000000
0.750000 0.650000 0.000000
0.775000 0.650000 0.000000
0.800000 0.650000 0.000000
0.825000 0.650000 0.000000
0.850000 0.650000 0.000000
0.875000 0.650000 0.000000
0.900000 0.650000 0.000000
0.925000 0.650000 0.000000
0.950000 0.650000 0.000000
0.975000 0.650000 0.000000
0.650000 0.675000 0.000000
0.675000 0.675000 0.000000
0.700000 0.675000 0.000000
0.725000 0.675000 0.000000
0.750000 0.675000 0.000000
0.775000 0.675000 0.000000
0.800000 0.675000 0.000000
0.825000 0.675000 0.000000
0.850000 0.675000 0.000000
0.875000 0.675000 0.000000
0.900000 0.675000 0.000000
0.925000 0.675000 0.000000
0.950000 0.675000 0.000000
0.975000 0.675000 0.000000
0.650000 0.700000 0.000000
0.675000 0.700000 0.000000
0.700000 0.700000 0.000000
0.725000 0.700000 0.000000
0.750000 0.700000 0.000000
0.775000 0.700000 0.000000
0.800000 0.700000 0.000000
0.825000 0.700000 0.000000
0.850000 0.700000 0.000000
0.875000 0.700000 0.000000
0.900000 0.700000 0.000000
0.925000 0.700000 0.000000
0.950000 0.700000 0.000000
0.975000 0.700000 0.000000
0.650000 0.725000 0.000000
0.675000 0.725000 0.000000
0.700000 0.725000 0.000000
0.725000 0.725000 0.000000
0.750000 0.725000 0.000000
0.775000 0.725000 0.000000
0.800000 0.725000 0.000000
0.825000 0.725000 0.000000
0.850000 0.725000 0.000000
0.875000 0.725000 0.000000
0.900000 0.725000 0.000000
0.925000 0.725000 0.000000
0.950000 0.725000 0.000000
0.975000 0.725000 0.000000
0.650000 0.750000 0.000000
0.675000 0.750000 0.000000
0.700000 0.750000 0.000000
0.725000 0.750000 0.000000
0.750000 0.750000 0.000000
0.775000 0.750000 0.000000
0.800000 0.750000 0.000000
0.825000 0.750000 0.000000
0.850000 0.750000 0.000000
0.875000 0.750000 0.000000
0.900000 0.750000 0.000000
0.925000 0.750000 0.000000
0.950000 0.750000 0.000000
0.975000 0.750000 0.000000
0.650000 0.775000 0.000000
0.675000 0.775000 0.000000
0.700000 0.775000 0.000000
0.725000 0.775000 0.000000
0.750000 0.775000 0.000000
0.775000 0.775000 0.000000
0.800000 0.775000 0.000000
0.825000 0.775000 0.000000
0.850000 0.775000 0.000000
0.875000 0.775000 0.000000
0.900000 0.775000 0.000000
0.925000 0.775000 0.000000
0.950000 0.775000 0.000000
0.975000 0.775000 0.000000
0.650000 0.800000 0.000000
0.675000 0.800000 0.000000
0.700000 0.800000 0.000000
0.725000 0.800000 0.000000
0.750000 0.800000 0.000000
0.775000 0.800000 0.000000
0.800000 0.800000 0.000000
0.825000 0.800000 0.000000
0.850000 0.800000 0.000000
0.875000 0.800000 0.000000
0.900000 0.800000 0.000000
0.925000 0.800000 0.000000
0.950000 0.800000 0.000000
0.975000 0.800000 0.000000
0.650000 0.825000 0.000000
0.675000 0.825000 0.000000
0.700000 0.825000 0.000000
0.725000 0.825000 0.000000
0.750000 0.825000 0.000000
0.775000 0.825000 0.000000
0.800000 0.825000 0.000000
0.825000 0.825000 0.000000
0.850000 0.825000 0.000000
0.875000 0.825000 0.000000
0.900000 0.825000 0.000000
0.925000 0.825000 0.000000
0.950000 0.825000 0.000000
0.975000 0.825000 0.000000
0.650000 0.850000 0.000000
0.675000 0.850000 0.000000
0.700000 0.850000 0.000000
0.725000 0.850000 0.000000
0.750000 0.850000 0.000000
0.775000 0.850000 0.000000
0.800000 0.850000 0.000000
0.825000 0.850000 0.000000
0.850000 0.850000 0.000000
0.875000 0.850000 0.000000
0.900000 0.850000 0.000000
0.925000 0.850000 0.000000
0.950000 0.850000 0.000000
0.975000 0.850000 0.000000
0.650000 0.875000 0.000000
0.675000 0.875000 0.000000
0.700000 0.875000 0.000000
0.725000 0.875000 0.000000
0.750000 0.875000 0.000000
0.775000 0.875000 0.000000
0.800000 0.875000 0.000000
0.825000 0.875000 0.000000
0.850000 0.875000 0.000000
0.875000 0.875000 0.000000
0.900000 0.875000 0.000000
0.925000 0.875000 0.000000
0.950000 0.875000 0.000000
0.975000 0.875000 0.000000
0.650000 0.900000 0.000000
0.675000 0.900000 0.000000
0.700000 0.900000 0.000000
0.725000 0.900000 0.000000
0.750000 0.900000 0.000000
0.775000 0.900000 0.000000
0.800000 0.900000 0.000000
0.825000 0.900000 0.000000
0.850000 0.900000 0.000000
0.875000 0.900000 0.000000
0.900000 0.900000 0.000000
0.925000 0.900000 0.000000
0.950000 0.900000 0.000000
0.975000 0.900000 0.000000
0.650000 0.925000 0.000000
0.675000 0.925000 0.000000
0.700000 0.925000 0.000000
0.725000 0.925000 0.000000
0.750000 0.925000 0.000000
0.775000 0.925000 0.000000
0.800000 0.925000 0.000000
0.825000 0.925000 0.000000
0.850000 0.925000 0.000000
0.875000 0.925000 0.000000
0.900000 0.925000 0.000000
0.925000 0.925000 0.000000
0.950000 0.925000 0.000000
0.975000 0.925000 0.000000
0.650000 0.950000 0.000000
0.675000 0.950000 0.000000
0.700000 0.950000 0.000000
0.725000 0.950000 0.000000
0.750000 0.950000 0.000000
0.775000 0.950000 0.000000
0.800000 0.950000 0.000000
0.825000 0.950000 0.000000
0.850000 0.950000 0.000000
0.875000 0.950000 0.000000
0.900000 0.950000 0.000000
0.925000 0.950000 0.000000
0.950000 0.950000 0.000000
0.975000 0.950000 0.000000
0.650000 0.975000 0.000000
0.675000 0.975000 0.000000
0.700000 0.975000 0.000000
0.725000 0.975000 0.000000
0.750000 0.975000 0.000000
0.775000 0.975000 0.000000
0.800000 0.975000 0.000000
0.825000 0.975000 0.000000
0.850000 0.975000 0.000000
0.875000 0.975000 0.000000
0.900000 0.975000 0.000000
0.925000 0.975000 0.000000
0.950000 0.975000 0.000000
0.975000 0.975000 0.000000
0.650000 0.500000 0.025000
0.675000 0.500000 0.025000
0.700000 0.500000 0.025000
0.725000 0.500000 0.025000
0.750000 0.500000 0.025000
0.775000 0.500000 0.025000
0.800000 0.500000 0.025000
0.825000 0.500000 0.025000
0.850000 0.500000 0.025000
0.875000 0.500000 0.025000
0.900000 0.500000 0.025000
0.925000 0.500000 0.025000
0.950000 0.500000 0.025000
0.975000 0.500000 0.025000
0.650000 0.525000 0.025000
0.675000 0.525000 0.025000
0.700000 0.525000 0.025000
0.725000 0.525000 0.025000
0.750000 0.525000 0.025000
0.775000 0.525000 0.025000
0.800000 0.525000 0.025000
0.825000 0.525000 0.025000
0.850000 0.525000 0.025000
0.875000 0.525000 0.025000
0.900000 0.525000 0.025000
0.925000 0.525000 0.025000
0.950000 0.525000 0.025000
0.975000 0.525000 0.025000
0.650000 0.550000 0.025000
0.675000 0.550000 0.025000
0.700000 0.550000 0.025000
0.725000 0.550000 0.025000
0.750000 0.550000 0.025000
0.775000 0.550000 0.025000
0.800000 0.550000 0.025000
0.825000 0.550000 0.025000
0.850000 0.550000 0.025000
0.875000 0.550000 0.025000
0.900000 0.550000 0.025000
0.925000 0.550000 0.025000
0.950000 0.550000 0.025000
0.975000 0.550000 0.025000
0.650000 0.575000 0.025000
0.675000 0.575000 0.025000
0.700000 0.575000 0.025000
0.725000 0.575000 0.025000
0.750000 0.575000 0.025000
0.775000 0.575000 0.025000
0.800000 0.575000 0.025000
0.825000 0.575000 0.025000
0.850000 0.575000 0.025000
0.875000 0.575000 0.025000
0.900000 0.575000 0.025000
0.925000 0.575000 0.025000
0.950000 0.575000 0.025000
0.975000 0.575000 0.025000
0.650000 0.600000 0.025000
0.675000 0.600000 0.025000
0.700000 0.600000 0.025000
0.725000 0.600000 0.025000
0.750000 0.600000 0.025000
0.775000 0.600000 0.025000
0.800000 0.600000 0.025000
0.825000 0.600000 0.025000
0.850000 0.600000 0.025000
0.875000 0.600000 0.025000
0.900000 0.600000 0.025000
0.925000 0.600000 0.025000
0.950000 0.600000 0.025000
0.975000 0.600000 0.025000
0.650000 0.625000 0.025000
0.675000 0.625000 0.025000
0.700000 0.625000 0.025000
0.725000 0.625000 0.025000
0.750000 0.625000 0.025000
0.775000 0.625000 0.025000
0.800000 0.625000 0.025000
0.825000 0.625000 0.025000
0.850000 0.625000 0.025000
0.875000 0.625000 0.025000
0.900000 0.625000 0.025000
0.925000 0.625000 0.025000
0.950000 0.625000 0.025000
0.975000 0.625000 0.025000
0.650000 0.650000 0.025000
[...]
CELL_DATA 9633
SCALARS density float 1
LOOKUP_TABLE default
0.999931
0.99997
1.00001
1.00004
1.00008
1.00011
1.00013
1.00015
1.00017
1.00019
1.00019
1.00019
1.00018
0.999934
0.999975
1.00001
1.00005
1.00008
1.00011
1.00014
1.00016
1.00018
1.0002
1.00021
1.00021
1.0002
0.999937
0.999977
1.00003
1.00006
1.00008
1.00011
1.00014
1.00016
1.00018
1.00019
1.0002
1.00022
1.0002
0.99994
0.999981
1.00002
1.00006
1.00009
1.00012
1.00015
1.00017
1.00019
1.00021
1.00022
1.00022
1.0002
0.999944
0.999982
1.00002
1.00006
1.00009
1.00012
1.00015
1.00017
1.00019
1.00021
1.00022
1.00022
1.0002
0.999947
0.999984
1.00002
1.00006
1.00009
1.00012
1.00015
1.00017
1.00019
1.00021
1.00022
1.00022
1.00019
0.999951
0.999988
1.00002
1.00006
1.00009
1.00012
1.00015
1.00017
1.00019
1.00021
1.00022
1.00021
1.00019
0.999956
0.999992
1.00003
1.00006
1.0001
1.00012
1.00015
1.00017
1.00019
1.0002
1.00021
1.00021
1.00019
0.999962
0.999996
1.00003
1.00007
1.0001
1.00013
1.00015
1.00017
1.00018
1.00019
1.00019
1.00018
1.0002
0.999968
1
1.00004
1.00008
1.00011
1.00013
1.00015
1.00016
1.00017
1.00018
1.00016
1.00012
1.00005
0.999974
1.00001
1.00004
1.00008
1.00011
1.00013
1.00015
1.00016
1.00017
1.00017
1.00014
1.00009
1.00006
0.999979
1.00001
1.00004
1.00008
1.0001
1.00013
1.00015
1.00016
1.00016
1.00016
1.00013
1.00008
1.00005
0.999985
1.00001
1.00004
1.00007
1.0001
1.00012
1.00014
1.00015
1.00016
1.00015
1.00012
1.00007
1.00004
0.999992
1.00002
1.00005
1.00008
1.0001
1.00012
1.00014
1.00015
1.00015
1.00015
1.00012
1.00006
1.00003
1
1.00003
1.00005
1.00008
1.0001
1.00012
1.00013
1.00014
1.00015
1.00014
1.00012
1.00007
1
1.00002
1.00004
1.00005
1.00007
1.00009
1.00011
1.00012
1.00013
1.00014
1.00013
1.00012
1.00011
1.00014
1.00007
1.00005
1.00005
1.00007
1.00008
1.0001
1.00011
1.00012
1.00012
1.00012
1.00012
1.00012
1.0001
1.00012
1.00005
1.00005
1.00006
1.00007
1.00008
1.00009
1.0001
1.0001
1.0001
1.0001
1.0001
1.00008
1.00012
1.00004
1.00003
1.00004
1.00005
1.00006
1.00007
1.00007
1.00007
1.00007
1.00007
1.00006
1.00004
0.999919
0.99996
1
1.00004
1.00008
1.00012
1.00015
1.00018
1.0002
1.00022
1.00023
1.00023
1.00026
0.999917
0.999957
0.999999
1.00004
1.00008
1.00011
1.00015
1.00018
1.0002
1.00022
1.00023
1.00024
1.00026
0.999918
0.999959
1
1.00004
1.00008
1.00011
1.00014
1.00017
1.0002
1.00021
1.00023
1.00024
1.00025
0.99992
0.999959
1
1.00004
1.00008
1.00011
1.00015
1.00017
1.0002
1.00022
1.00023
1.00024
1.00025
0.999923
0.999961
1
1.00004
1.00008
1.00011
1.00015
1.00018
1.0002
1.00022
1.00023
1.00024
1.00024
0.999927
0.999965
1
1.00004
1.00008
1.00012
1.00015
1.00018
1.0002
1.00022
1.00023
1.00024
1.00024
0.999932
0.999969
1.00001
1.00005
1.00008
1.00012
1.00015
1.00017
1.0002
1.00021
1.00022
1.00023
1.00024
0.999939
0.999974
1.00001
1.00005
1.00008
1.00012
1.00015
1.00017
1.00019
1.0002
1.00021
1.00021
1.00023
0.999945
0.99998
1.00002
1.00005
1.00009
1.00012
1.00015
1.00017
1.00019
1.0002
1.00019
1.00017
1.00014
0.999953
0.999986
1.00002
1.00006
1.00009
1.00012
1.00015
1.00017
1.00018
1.00018
1.00017
1.00012
0.999941
0.99996
0.999992
1.00003
1.00006
1.00009
1.00012
1.00014
1.00016
1.00017
1.00017
1.00015
1.00007
0.999816
0.999967
0.999998
1.00003
1.00006
1.00009
1.00012
1.00014
1.00016
1.00017
1.00016
1.00013
1.00004
0.999796
0.999974
1
1.00003
1.00006
1.00009
1.00012
1.00014
1.00015
1.00016
1.00016
1.00012
1.00002
0.99978
0.999981
1.00001
1.00004
1.00007
1.00009
1.00011
1.00013
1.00015
1.00016
1.00015
1.00012
1.00004
0.999772
0.999991
1.00002
1.00004
1.00007
1.00009
1.00011
1.00013
1.00014
1.00015
1.00015
1.00012
1.00006
0.999847
1
1.00002
1.00004
1.00007
1.00009
1.00011
1.00012
1.00013
1.00014
1.00014
1.00013
1.00009
1.00004
1.00002
1.00003
1.00005
1.00006
1.00008
1.0001
1.00011
1.00012
1.00013
1.00013
1.00012
1.00011
1.00015
1.00006
1.00005
1.00005
1.00006
1.00007
1.00009
1.0001
1.00011
1.00011
1.00011
1.00011
1.00011
1.00013
1.00007
1.00005
1.00004
1.00005
1.00007
1.00008
1.00009
1.00009
1.0001
1.0001
1.0001
1.0001
1.00009
0.9999
0.999941
0.999985
1.00003
1.00007
1.00012
1.00015
1.00019
1.00022
1.00023
1.00025
1.00026
1.00029
0.999898
0.999938
0.999982
1.00003
1.00007
1.00011
1.00015
1.00018
1.00021
1.00023
1.00025
1.00027
1.00029
0.999898
0.999939
0.999982
1.00003
1.00007
1.00011
1.00015
1.00018
1.00021
1.00023
1.00025
1.00026
1.00029
0.9999
0.999939
0.999982
1.00003
1.00007
1.00011
1.00015
1.00018
1.00021
1.00023
1.00025
1.00026
1.00028
0.999903
0.999942
0.999983
1.00003
1.00007
1.00011
1.00015
1.00018
1.00021
1.00023
1.00025
1.00026
1.00028
0.999908
0.999946
0.999986
1.00003
1.00007
1.00011
1.00015
1.00018
1.00021
1.00023
1.00025
1.00026
1.00028
0.999914
0.999951
0.99999
1.00003
1.00007
1.00011
1.00015
1.00018
1.00021
1.00023
1.00024
1.00026
1.00027
0.999921
0.999957
0.999995
1.00003
1.00007
1.00011
1.00015
1.00018
1.0002
1.00022
1.00024
1.00026
1.00027
0.999929
0.999964
1
1.00004
1.00008
1.00011
1.00015
1.00017
1.0002
1.00021
1.00023
1.00024
1.0003
0.999938
0.999971
1.00001
1.00004
1.00008
1.00011
1.00014
1.00017
1.00019
1.0002
1.00021
1.00021
1.00022
0.999946
0.999978
1.00001
1.00005
1.00008
1.00011
1.00014
1.00017
1.00019
1.00019
1.00019
1.00019
1.00025
0.999954
0.999985
1.00002
1.00005
1.00008
1.00011
1.00014
1.00016
1.00018
1.00019
1.00018
1.00019
1.00024
0.999962
0.999992
1.00002
1.00005
1.00008
1.00011
1.00014
1.00016
1.00017
1.00018
1.00018
1.00018
1.00023
0.99997
0.999998
1.00003
1.00006
1.00008
1.00011
1.00013
1.00015
1.00017
1.00017
1.00017
1.00016
1.00022
0.999978
1
1.00003
1.00006
1.00008
1.00011
1.00013
1.00015
1.00016
1.00017
1.00017
1.00016
1.00018
0.999987
1.00001
1.00004
1.00006
1.00008
1.0001
1.00012
1.00014
1.00015
1.00016
1.00016
1.00018
1.00024
0.999999
1.00002
1.00004
1.00006
1.00008
1.0001
1.00012
1.00013
1.00014
1.00014
1.00015
1.00015
1.00019
1.00002
1.00003
1.00004
1.00006
1.00008
1.0001
1.00011
1.00012
1.00013
1.00013
1.00013
1.00013
1.00016
1.00001
1.00003
1.00004
1.00006
1.00008
1.00009
1.0001
1.00011
1.00012
1.00012
1.00011
1.00011
1.00012
0.99988
0.999922
0.999969
1.00002
1.00006
1.00011
1.00015
1.00019
1.00022
1.00025
1.00026
1.00028
1.00032
0.999878
0.99992
0.999966
1.00001
1.00006
1.00011
1.00015
1.00019
1.00022
1.00024
1.00027
1.00029
1.00032
0.999879
0.99992
0.999965
1.00001
1.00006
1.00011
1.00015
1.00019
1.00022
1.00024
1.00027
1.00029
1.00031
0.999881
0.999921
0.999965
1.00001
1.00006
1.0001
1.00015
1.00019
1.00022
1.00024
1.00026
1.00028
1.00031
0.999885
0.999924
0.999967
1.00001
1.00006
1.0001
1.00015
1.00018
1.00022
1.00024
1.00026
1.00028
1.00031
0.99989
0.999928
0.99997
1.00001
1.00006
1.0001
1.00015
1.00018
1.00022
1.00024
1.00026
1.00028
1.0003
0.999897
0.999934
0.999975
1.00002
1.00006
1.0001
1.00015
1.00018
1.00021
1.00024
1.00026
1.00028
1.0003
0.999905
0.999941
0.99998
1.00002
1.00006
1.00011
1.00015
1.00018
1.00021
1.00024
1.00026
1.00028
1.0003
0.999914
0.999949
0.999987
1.00003
1.00007
1.00011
1.00015
1.00018
1.00021
1.00023
1.00025
1.00028
1.0003
0.999923
0.999957
0.999994
1.00003
1.00007
1.00011
1.00015
1.00018
1.00021
1.00022
1.00024
1.00025
1.0003
0.999933
0.999966
1
1.00004
1.00007
1.00011
1.00015
1.00018
1.0002
1.00022
1.00023
1.00025
1.0003
0.999942
0.999974
1.00001
1.00004
1.00008
1.00011
1.00014
1.00017
1.00019
1.00021
1.00023
1.00025
1.0003
0.999951
0.999981
1.00001
1.00005
1.00008
1.00011
1.00014
1.00017
1.00019
1.0002
1.00022
1.00024
1.00029
0.999958
0.999987
1.00002
1.00005
1.00008
1.00011
1.00014
1.00016
1.00018
1.00019
1.00021
1.00023
1.00028
0.999966
0.999993
1.00002
1.00005
1.00008
1.00011
1.00013
1.00016
1.00017
1.00019
1.0002
1.00022
1.00027
0.999973
1
1.00003
1.00005
1.00008
1.00011
1.00013
1.00015
1.00017
1.00018
1.00019
1.00021
1.00029
0.999979
1.00001
1.00003
1.00006
1.00008
1.00011
1.00013
1.00014
1.00016
1.00016
1.00017
1.00016
1.00015
0.999985
1.00001
1.00004
1.00006
1.00008
1.0001
1.00012
1.00014
1.00015
1.00015
1.00014
1.00012
1.00015
0.999952
1.00001
1.00004
1.00006
1.00008
1.00009
1.00011
1.00012
1.00013
1.00013
1.00012
1.0001
1.00008
0.999859
0.999903
0.999952
1
1.00006
1.00011
1.00015
1.0002
1.00023
1.00025
1.00027
1.00029
1.00034
0.999858
0.999902
0.99995
1
1.00005
1.0001
1.00015
1.00019
1.00023
1.00025
1.00028
1.0003
1.00034
0.999859
0.999902
0.99995
1
1.00005
1.0001
1.00015
1.00019
1.00023
1.00025
1.00028
1.0003
1.00033
0.999862
0.999903
0.99995
1
1.00005
1.0001
1.00015
1.00019
1.00022
1.00025
1.00028
1.0003
1.00033
0.999866
0.999907
0.999952
1
1.00005
1.0001
1.00015
1.00019
1.00022
1.00025
1.00027
1.0003
1.00033
0.999872
0.999911
0.999956
1
1.00005
1.0001
1.00014
1.00019
1.00022
1.00025
1.00027
1.0003
1.00032
0.99988
0.999918
0.99996
1.00001
1.00005
1.0001
1.00015
1.00019
1.00022
1.00025
1.00027
1.00029
1.00032
0.999889
0.999926
0.999967
1.00001
1.00006
1.0001
1.00015
1.00019
1.00022
1.00025
1.00027
1.00029
1.00032
0.999899
0.999935
0.999974
1.00002
1.00006
1.0001
1.00015
1.00019
1.00022
1.00025
1.00027
1.00029
1.00032
0.99991
0.999944
0.999982
1.00002
1.00006
1.00011
1.00015
1.00019
1.00022
1.00024
1.00026
1.00029
1.00032
0.999921
0.999954
0.99999
1.00003
1.00007
1.00011
1.00015
1.00018
1.00021
1.00024
1.00026
1.00028
1.00032
0.999931
0.999963
0.999998
1.00003
1.00007
1.00011
1.00015
1.00018
1.00021
1.00023
1.00025
1.00028
1.00032
0.99994
0.999971
1
1.00004
1.00007
1.00011
1.00014
1.00018
1.0002
1.00022
1.00025
1.00027
1.00031
0.999948
0.999978
1.00001
1.00004
1.00008
1.00011
1.00014
1.00017
1.0002
1.00021
1.00023
1.00026
1.00031
0.999955
0.999984
1.00001
1.00005
1.00008
1.00011
1.00014
1.00017
1.00019
1.0002
1.00021
1.00023
1.00029
0.99996
0.999989
1.00002
1.00005
1.00008
1.00011
1.00014
1.00016
1.00018
1.00019
1.0002
1.00019
1.0002
0.99996
0.999994
1.00003
1.00006
1.00009
1.00012
1.00014
1.00016
1.00018
1.00019
1.00019
1.00015
0.999996
0.999944
1.00001
1.00005
1.00008
1.0001
1.00013
1.00015
1.00017
1.00018
1.00019
1.00018
1.00013
0.999878
0.99995
1.00003
1.00008
1.00011
1.00013
1.00016
1.00018
1.00019
1.00021
1.00021
1.0002
1.00013
0.999945
0.999837
0.999883
0.999936
0.999991
1.00005
1.0001
1.00015
1.0002
1.00023
1.00026
1.00028
1.0003
1.00034
0.999837
0.999883
0.999935
0.99999
1.00004
1.0001
1.00015
1.00019
1.00023
1.00026
1.00028
1.00031
1.00035
0.999839
0.999884
0.999934
0.999989
1.00004
1.0001
1.00015
1.00019
1.00023
1.00026
1.00028
1.00031
1.00034
0.999842
0.999886
0.999935
0.999989
1.00004
1.0001
1.00015
1.00019
1.00023
1.00026
1.00028
1.00031
1.00035
0.999847
0.99989
0.999938
0.99999
1.00004
1.00009
1.00014
1.00019
1.00023
1.00026
1.00028
1.0003
1.00033
0.999854
0.999895
0.999942
0.999992
1.00004
1.0001
1.00014
1.00019
1.00023
1.00026
1.00028
1.0003
1.00033
0.999863
0.999902
0.999947
0.999996
1.00005
1.0001
1.00015
1.00019
1.00023
1.00026
1.00028
1.00031
1.00033
0.999873
0.999911
0.999955
1
1.00005
1.0001
1.00015
1.00019
1.00023
1.00026
1.00028
1.00031
1.00033
0.999884
0.999921
0.999963
1.00001
1.00005
1.0001
1.00015
1.00019
1.00023
1.00026
1.00028
1.00031
1.00034
0.999896
0.999932
0.999972
1.00002
1.00006
1.00011
1.00015
1.00019
1.00023
1.00025
1.00028
1.00031
1.00034
0.999908
0.999943
0.999981
1.00002
1.00007
1.00011
1.00015
1.00019
1.00022
1.00025
1.00028
1.0003
1.00034
0.99992
0.999953
0.999989
1.00003
1.00007
1.00011
1.00015
1.00019
1.00022
1.00025
1.00027
1.0003
1.00033
0.99993
0.999962
0.999997
1.00003
1.00007
1.00011
1.00015
1.00018
1.00022
1.00024
1.00027
1.00029
1.00033
0.999938
0.999969
1
1.00004
1.00008
1.00011
1.00015
1.00018
1.00021
1.00023
1.00026
1.00028
1.00032
0.999946
0.999977
1.00001
1.00004
1.00008
1.00011
1.00015
1.00018
1.0002
1.00022
1.00025
1.00028
1.00031
0.999953
0.999984
1.00002
1.00005
1.00008
1.00011
1.00014
1.00017
1.0002
1.00021
1.00023
1.00026
1.00033
0.999959
0.999993
1.00003
1.00006
1.00009
1.00012
1.00015
1.00017
1.00019
1.0002
1.00021
1.00021
1.00023
0.999966
1
1.00004
1.00007
1.0001
1.00013
1.00015
1.00017
1.00019
1.0002
1.0002
1.00019
1.00024
0.999949
1.00001
1.00005
1.00009
1.00011
1.00014
1.00016
1.00018
1.00019
1.0002
1.00019
1.00018
1.00019
0.999815
0.999863
0.999919
0.999978
1.00004
1.0001
1.00015
1.0002
1.00024
1.00026
1.00028
1.0003
1.00034
0.999816
0.999863
0.999918
0.999977
1.00004
1.00009
1.00015
1.00019
1.00023
1.00026
1.00028
1.0003
1.00034
0.999818
0.999865
0.999919
0.999977
1.00003
1.00009
1.00014
1.00019
1.00023
1.00026
1.00028
1.0003
1.00035
0.999822
0.999868
0.99992
0.999977
1.00003
1.00009
1.00014
1.00019
1.00023
1.00026
1.00028
1.0003
1.00035
0.999828
0.999872
0.999923
0.999978
1.00003
1.00009
1.00014
1.00019
1.00023
1.00026
1.00028
1.0003
1.00034
0.999836
0.999878
0.999928
0.999981
1.00004
1.00009
1.00014
1.00019
1.00023
1.00026
1.00028
1.0003
1.00033
0.999845
0.999887
0.999934
0.999986
1.00004
1.00009
1.00014
1.00019
1.00023
1.00026
1.00029
1.00031
1.00034
0.999856
0.999896
0.999942
0.999992
1.00004
1.0001
1.00015
1.00019
1.00023
1.00026
1.00029
1.00031
1.00034
0.999869
0.999908
0.999952
1
1.00005
1.0001
1.00015
1.00019
1.00023
1.00026
1.00029
1.00031
1.00033
0.999883
0.99992
0.999962
1.00001
1.00006
1.0001
1.00015
1.00019
1.00023
1.00026
1.00029
1.00031
1.00034
0.999896
0.999932
0.999972
1.00002
1.00006
1.00011
1.00015
1.00019
1.00023
1.00026
1.00029
1.00031
1.00034
0.999908
0.999943
0.999981
1.00002
1.00007
1.00011
1.00015
1.00019
1.00023
1.00026
1.00028
1.00031
1.00033
0.999919
0.999953
0.99999
1.00003
1.00007
1.00011
1.00015
1.00019
1.00023
1.00025
1.00028
1.0003
1.00033
0.999929
0.999961
0.999997
1.00003
1.00007
1.00011
1.00015
1.00019
1.00022
1.00025
1.00027
1.0003
1.00033
0.999938
0.99997
1
1.00004
1.00008
1.00011
1.00015
1.00018
1.00021
1.00024
1.00026
1.00029
1.00032
0.999946
0.999978
1.00001
1.00005
1.00008
1.00012
1.00015
1.00018
1.00021
1.00023
1.00025
1.00028
1.00031
0.999955
0.999987
1.00002
1.00005
1.00009
1.00012
1.00015
1.00018
1.0002
1.00021
1.00023
1.00024
1.00028
0.999962
0.999997
1.00003
1.00006
1.00009
1.00012
1.00015
1.00017
1.00019
1.0002
1.00021
1.00022
1.00026
0.999963
1
1.00004
1.00007
1.0001
1.00013
1.00015
1.00017
1.00018
1.00019
1.0002
1.0002
1.00021
0.999791
0.999842
0.999901
0.999964
1.00003
1.00009
1.00015
1.00019
1.00023
1.00026
1.00028
1.00028
1.0003
0.999792
0.999842
0.999901
0.999963
1.00003
1.00009
1.00014
1.00019
1.00023
1.00026
1.00027
1.00027
1.00028
0.999795
0.999845
0.999902
0.999963
1.00002
1.00009
1.00014
1.00019
1.00023
1.00026
1.00027
1.00027
1.00027
0.9998
0.999848
0.999904
0.999964
1.00002
1.00008
1.00014
1.00019
1.00023
1.00025
1.00027
1.00027
1.00027
0.999807
0.999853
0.999907
0.999966
1.00002
1.00008
1.00014
1.00019
1.00023
1.00025
1.00027
1.00026
1.00026
0.999816
0.99986
0.999912
0.999969
1.00003
1.00008
1.00014
1.00019
1.00023
1.00026
1.00027
1.00027
1.00026
0.999826
0.99987
0.99992
0.999975
1.00003
1.00009
1.00014
1.00019
1.00023
1.00026
1.00028
1.0003
1.00036
0.999839
0.99988
0.999929
0.999982
1.00004
1.00009
1.00014
1.00019
1.00023
1.00026
1.00029
1.00031
1.00034
0.999853
0.999893
0.999939
0.99999
1.00004
1.00009
1.00015
1.00019
1.00023
1.00026
1.00029
1.00031
1.00034
0.999868
0.999906
0.999951
0.999999
1.00005
1.0001
1.00015
1.00019
1.00023
1.00027
1.00029
1.00031
1.00034
0.999882
0.99992
0.999962
1.00001
1.00006
1.0001
1.00015
1.0002
1.00023
1.00027
1.00029
1.00031
1.00034
0.999896
0.999932
0.999972
1.00002
1.00006
1.00011
1.00015
1.0002
1.00023
1.00026
1.00029
1.00031
1.00034
0.999908
0.999943
0.999982
1.00002
1.00007
1.00011
1.00015
1.0002
1.00023
1.00026
1.00028
1.00031
1.00034
0.999919
0.999953
0.99999
1.00003
1.00007
1.00011
1.00015
1.00019
1.00023
1.00025
1.00028
1.0003
1.00033
0.999929
0.999962
0.999998
1.00004
1.00007
1.00011
1.00015
1.00019
1.00022
1.00025
1.00027
1.00029
1.00032
0.999939
0.999971
1.00001
1.00004
1.00008
1.00012
1.00015
1.00018
1.00021
1.00024
1.00026
1.00028
1.0003
0.999948
0.999981
1.00002
1.00005
1.00008
1.00012
1.00015
1.00018
1.0002
1.00022
1.00024
1.00026
1.00028
0.999958
0.999992
1.00003
1.00006
1.00009
1.00012
1.00015
1.00017
1.00019
1.00021
1.00022
1.00023
1.00025
0.999969
1
1.00004
1.00007
1.0001
1.00013
1.00015
1.00017
1.00019
1.0002
1.00021
1.00021
1.0002
0.999766
0.999819
0.999882
0.999949
1.00002
1.00008
1.00014
1.00019
1.00023
1.00026
1.00027
1.00025
1.0002
0.999768
0.999821
0.999882
0.999949
1.00001
1.00008
1.00014
1.00019
1.00023
1.00025
1.00026
1.00024
1.00011
0.999772
0.999823
0.999883
0.999949
1.00001
1.00008
1.00014
1.00019
1.00023
1.00025
1.00026
1.00022
1.00006
0.999777
0.999827
0.999886
0.99995
1.00001
1.00008
1.00013
1.00018
1.00022
1.00025
1.00025
1.00021
1.00004
0.999785
0.999833
0.99989
0.999952
1.00001
1.00008
1.00013
1.00018
1.00022
1.00025
1.00026
1.00022
1.00005
0.999794
0.999841
0.999896
0.999956
1.00002
1.00008
1.00013
1.00018
1.00022
1.00025
1.00026
1.00024
1.00011
0.999806
0.999851
0.999904
0.999962
1.00002
1.00008
1.00013
1.00018
1.00023
1.00025
1.00027
1.00027
1.00025
0.99982
0.999863
0.999914
0.99997
1.00003
1.00008
1.00014
1.00019
1.00023
1.00026
1.00028
1.00029
1.00033
0.999835
0.999877
0.999925
0.999979
1.00003
1.00009
1.00014
1.00019
1.00023
1.00026
1.00028
1.00031
1.00034
0.999851
0.999892
0.999938
0.999989
1.00004
1.00009
1.00015
1.00019
1.00023
1.00026
1.00029
1.00031
1.00034
0.999867
0.999906
0.999951
1
1.00005
1.0001
1.00015
1.0002
1.00023
1.00026
1.00029
1.00031
1.00034
0.999883
0.99992
0.999962
1.00001
1.00006
1.00011
1.00015
1.0002
1.00023
1.00026
1.00029
1.00031
1.00034
0.999896
0.999932
0.999973
1.00002
1.00006
1.00011
1.00015
1.0002
1.00023
1.00026
1.00028
1.00031
1.00034
0.999908
0.999943
0.999982
1.00002
1.00007
1.00011
1.00015
1.00019
1.00023
1.00026
1.00028
1.0003
1.00034
0.999919
0.999953
0.99999
1.00003
1.00007
1.00011
1.00015
1.00019
1.00022
1.00025
1.00027
1.00029
1.00032
0.99993
0.999964
1
1.00004
1.00008
1.00011
1.00015
1.00019
1.00022
1.00024
1.00026
1.00028
1.0003
0.999941
0.999975
1.00001
1.00005
1.00008
1.00012
1.00015
1.00018
1.00021
1.00023
1.00025
1.00026
1.00028
0.999954
0.999987
1.00002
1.00006
1.00009
1.00012
1.00015
1.00018
1.0002
1.00022
1.00023
1.00024
1.00025
0.999967
1
1.00003
1.00007
1.0001
1.00013
1.00015
1.00017
1.00019
1.00021
1.00022
1.00022
1.0002
0.99974
0.999797
0.999862
0.999933
1
1.00007
1.00013
1.00019
1.00023
1.00026
1.00028
1.00029
1.00034
0.999743
0.999798
0.999863
0.999933
1
1.00007
1.00013
1.00018
1.00023
1.00026
1.00028
1.00029
1.00035
0.999747
0.999801
0.999865
0.999933
1
1.00007
1.00013
1.00018
1.00022
1.00025
1.00027
1.00029
1.00035
0.999753
0.999806
0.999867
0.999934
1
1.00007
1.00013
1.00018
1.00022
1.00025
1.00027
1.00029
1.00035
0.999761
0.999812
0.999872
0.999937
1
1.00007
1.00013
1.00018
1.00022
1.00025
1.00027
1.00029
1.00034
0.999772
0.999821
0.999878
0.999941
1
1.00007
1.00013
1.00018
1.00022
1.00025
1.00028
1.00029
1.00032
0.999785
0.999832
0.999887
0.999948
1.00001
1.00007
1.00013
1.00018
1.00022
1.00026
1.00028
1.00031
1.00035
0.9998
0.999845
0.999898
0.999956
1.00002
1.00008
1.00013
1.00018
1.00022
1.00026
1.00028
1.0003
1.00033
0.999816
0.99986
0.999911
0.999967
1.00002
1.00008
1.00014
1.00019
1.00023
1.00026
1.00028
1.0003
1.00033
0.999834
0.999876
0.999925
0.999978
1.00003
1.00009
1.00014
1.00019
1.00023
1.00026
1.00028
1.0003
1.00033
0.999852
0.999892
0.999939
0.99999
1.00004
1.0001
1.00015
1.00019
1.00023
1.00026
1.00028
1.0003
1.00033
0.999868
0.999907
0.999951
1
1.00005
1.0001
1.00015
1.00019
1.00023
1.00026
1.00028
1.0003
1.00033
0.999883
0.99992
0.999963
1.00001
1.00006
1.0001
1.00015
1.00019
1.00023
1.00026
1.00028
1.0003
1.00033
0.999896
0.999932
0.999973
1.00002
1.00006
1.00011
1.00015
1.00019
1.00023
1.00025
1.00027
1.00029
1.00033
0.999908
0.999943
0.999982
1.00002
1.00007
1.00011
1.00015
1.00019
1.00022
1.00025
1.00027
1.0003
1.00033
0.999921
0.999955
0.999992
1.00003
1.00007
1.00011
1.00015
1.00019
1.00022
1.00024
1.00026
1.00028
1.00031
0.999933
0.999967
1
1.00004
1.00008
1.00012
1.00015
1.00018
1.00021
1.00023
1.00025
1.00026
1.00028
0.999947
0.99998
1.00002
1.00005
1.00009
1.00012
1.00015
1.00018
1.0002
1.00022
1.00023
1.00024
1.00025
0.999962
0.999995
1.00003
1.00006
1.0001
1.00012
1.00015
1.00017
1.00019
1.00021
1.00022
1.00022
1.0002
0.999716
0.999775
0.999844
0.999918
0.999992
1.00006
1.00013
1.00018
1.00023
1.00026
1.00028
1.0003
1.00033
0.999719
0.999777
0.999845