# vtk DataFile Version 2.0
I need something to put here
ASCII

DATASET STRUCTURED_GRID
DIMENSIONS 14 20 40
POINTS 11200 float
0.000000 0.500000 0.000000
0.025000 0.500000 0.000000
0.050000 0.500000 0.000000
0.075000 0.500000 0.000000
0.100000 0.500000 0.000000
0.125000 0.500000 0.000000
0.150000 0.500000 0.000000
0.175000 0.500000 0.000000
0.200000 0.500000 0.000000
0.225000 0.500000 0.000000
0.250000 0.500000 0.000000
0.275000 0.500000 0.000000
0.300000 0.500000 0.000000
0.325000 0.500000 0.000000
0.000000 0.525000 0.000000
0.025000 0.525000 0.000000
0.050000 0.525000 0.000000
0.075000 0.525000 0.000000
0.100000 0.525000 0.000000
0.125000 0.525000 0.000000
0.150000 0.525000 0.000000
0.175000 0.525000 0.000000
0.200000 0.525000 0.000000
0.225000 0.525000 0.000000
0.250000 0.525000 0.000000
0.275000 0.525000 0.000000
0.300000 0.525000 0.000000
0.325000 0.525000 0.000000
0.000000 0.550000 0.000000
0.025000 0.550000 0.000000
0.050000 0.550000 0.000000
0.075000 0.550000 0.000000
0.100000 0.550000 0.000000
0.125000 0.550000 0.000000
0.150000 0.550000 0.000000
0.175000 0.550000 0.000000
0.200000 0.550000 0.000000
0.225000 0.550000 0.000000
0.250000 0.550000 0.000000
0.275000 0.550000 0.000000
0.300000 0.550000 0.000000
0.325000 0.550000 0.000000
0.000000 0.575000 0.000000
0.025000 0.575000 0.000000
0.050000 0.575000 0.000000
0.075000 0.575000 0.000000
0.100000 0.575000 0.000000
0.125000 0.575000 0.000000
0.150000 0.575000 0.000000
0.175000 0.575000 0.000000
0.200000 0.575000 0.000000
0.225000 0.575000 0.000000
0.250000 0.575000 0.000000
0.275000 0.575000 0.000000
0.300000 0.575000 0.000000
0.325000 0.575000 0.000000
0.000000 0.600000 0.000000
0.025000 0.600000 0.000000
0.050000 0.600000 0.000000
0.075000 0.600000 0.000000
0.100000 0.600000 0.000000
0.125000 0.600000 0.000000
0.150000 0.600000 0.000000
0.175000 0.600000 0.000000
0.200000 0.600000 0.000000
0.225000 0.600000 0.000000
0.250000 0.600000 0.000000
0.275000 0.600000 0.000000
0.300000 0.600000 0.000000
0.325000 0.600000 0.000000
0.000000 0.625000 0.000000
0.025000 0.625000 0.000000
0.050000 0.625000 0.000000
0.075000 0.625000 0.000000
0.100000 0.625000 0.000000
0.125000 0.625000 0.000000
0.150000 0.625000 0.000000
0.175000 0.625000 0.000000
0.200000 0.625000 0.000000
0.225000 0.625000 0.000000
0.250000 0.625000 0.000000
0.275000 0.625000 0.000000
0.300000 0.625000 0.000000
0.325000 0.625000 0.000000
0.000000 0.650000 0.000000
0.025000 0.650000 0.000000
0.050000 0.650000 0.000000
0.075000 0.650000 0.000000
0.100000 0.650000 0.000000
0.125000 0.650000 0.000000
0.150000 0.650000 0.000000
0.175000 0.650000 0.000000
0.200000 0.650000 0.000000
0.225000 0.650000 0.000000
0.250000 0.650000 0.000000
0.275000 0.650000 0.000000
0.300000 0.650000 0.000000
0.325000 0.650000 0.000000
0.000000 0.675000 0.000000
0.025000 0.675000 0.000000
0.050000 0.675000 0.000000
0.075000 0.675000 0.000000
0.100000 0.675000 0.000000
0.125000 0.675000 0.000000
0.150000 0.675000 0.000000
0.175000 0.675000 0.000000
0.200000 0.675000 0.000000
0.225000 0.675000 0.000000
0.250000 0.675000 0.000000
0.275000 0.675000 0.000000
0.300000 0.675000 0.000000
0.325000 0.675000 0.000000
0.000000 0.700000 0.000000
0.025000 0.700000 0.000000
0.050000 0.700000 0.000000
0.075000 0.700000 0.000000
0.100000 0.700000 0.000000
0.125000 0.700000 0.000000
0.150000 0.700000 0.000000
0.175000 0.700000 0.000000
0.200000 0.700000 0.000000
0.225000 0.700000 0.000000
0.250000 0.700000 0.000000
0.275000 0.700000 0.000000
0.300000 0.700000 0.000000
0.325000 0.700000 0.000000
0.000000 0.725000 0.000000
0.025000 0.725000 0.000000
0.050000 0.725000 0.000000
0.075000 0.725000 0.000000
0.100000 0.725000 0.000000
0.125000 0.725000 0.000000
0.150000 0.725000 0.000000
0.175000 0.725000 0.000000
0.200000 0.725000 0.000000
0.225000 0.725000 0.000000
0.250000 0.725000 0.000000
0.275000 0.725000 0.000000
0.300000 0.725000 0.000000
0.325000 0.725000 0.000000
0.000000 0.750000 0.000000
0.025000 0.750000 0.000000
0.050000 0.750000 0.000000
0.075000 0.750000 0.000000
0.100000 0.750000 0.000000
0.125000 0.750000 0.000000
0.150000 0.750000 0.000000
0.175000 0.750000 0.000000
0.200000 0.750000 0.000000
0.225000 0.750000 0.000000
0.250000 0.750000 0.000000
0.275000 0.750000 0.000000
0.300000 0.750000 0.000000
0.325000 0.750000 0.000000
0.000000 0.775000 0.000000
0.025000 0.775000 0.000000
0.050000 0.775000 0.000000
0.075000 0.775000 0.000000
0.100000 0.775000 0.000000
0.125000 0.775000 0.000000
0.150000 0.775000 0.000000
0.175000 0.775000 0.000000
0.200000 0.775000 0.000000
0.225000 0.775000 0.000000
0.250000 0.775000 0.000000
0.275000 0.775000 0.000000
0.300000 0.775000 0.000000
0.325000 0.775000 0.000000
0.000000 0.800000 0.000000
0.025000 0.800000 0.000000
0.050000 0.800000 0.000000
0.075000 0.800000 0.000000
0.100000 0.800000 0.000000
0.125000 0.800000 0.000000
0.150000 0.800000 0.000000
0.175000 0.800000 0.000000
0.200000 0.800000 0.000000
0.225000 0.800000 0.000000
0.250000 0.800000 0.000000
0.275000 0.800000 0.000000
0.300000 0.800000 0.000000
0.325000 0.800000 0.000000
0.000000 0.825000 0.000000
0.025000 0.825000 0.000000
0.050000 0.825000 0.000000
0.075000 0.825000 0.000000
0.100000 0.825000 0.000000
0.125000 0.825000 0.000000
0.150000 0.825000 0.000000
0.175000 0.825000 0.000000
0.200000 0.825000 0.000000
0.225000 0.825000 0.000000
0.250000 0.825000 0.000000
0.275000 0.825000 0.000000
0.300000 0.825000 0.000000
0.325000 0.825000 0.000000
0.000000 0.850000 0.000000
0.025000 0.850000 0.000000
0.050000 0.850000 0.000000
0.075000 0.850000 0.000000
0.100000 0.850000 0.000000
0.125000 0.850000 0.000000
0.150000 0.850000 0.000000
0.175000 0.850000 0.000000
0.200000 0.850000 0.000000
0.225000 0.850000 0.000000
0.250000 0.850000 0.000000
0.275000 0.850000 0.000000
0.300000 0.850000 0.000000
0.325000 0.850000 0.000000
0.000000 0.875000 0.000000
0.025000 0.875000 0.000000
0.050000 0.875000 0.000000
0.075000 0.875000 0.000000
0.100000 0.875000 0.000000
0.125000 0.875000 0.000000
0.150000 0.875000 0.000000
0.175000 0.875000 0.000000
0.200000 0.875000 0.000000
0.225000 0.875000 0.000000
0.250000 0.875000 0.000000
0.275000 0.875000 0.000000
0.300000 0.875000 0.000000
0.325000 0.875000 0.000000
0.000000 0.900000 0.000000
0.025000 0.900000 0.000000
0.050000 0.900000 0.000000
0.075000 0.900000 0.000000
0.100000 0.900000 0.000000
0.125000 0.900000 0.000000
0.150000 0.900000 0.000000
0.175000 0.900000 0.000000
0.200000 0.900000 0.000000
0.225000 0.900000 0.000000
0.250000 0.900000 0.000000
0.275000 0.900000 0.000000
0.300000 0.900000 0.000000
0.325000 0.900000 0.000000
0.000000 0.925000 0.000000
0.025000 0.925000 0.000000
0.050000 0.925000 0.000000
0.075000 0.925000 0.000000
0.100000 0.925000 0.000000
0.125000 0.925000 0.000000
0.150000 0.925000 0.000000
0.175000 0.925000 0.000000
0.200000 0.925000 0.000000
0.225000 0.925000 0.000000
0.250000 0.925000 0.000000
0.275000 0.925000 0.000000
0.300000 0.925000 0.000000
0.325000 0.925000 0.000000
0.000000 0.950000 0.000000
0.025000 0.950000 0.000000
0.050000 0.950000 0.000000
0.075000 0.950000 0.000000
0.100000 0.950000 0.000000
0.125000 0.950000 0.000000
0.150000 0.950000 0.000000
0.175000 0.950000 0.000000
0.200000 0.950000 0.000000
0.225000 0.950000 0.000000
0.250000 0.950000 0.000000
0.275000 0.950000 0.000000
0.300000 0.950000 0.000000
0.325000 0.950000 0.000000
0.000000 0.975000 0.000000
0.025000 0.975000 0.000000
0.050000 0.975000 0.000000
0.075000 0.975000 0.000000
0.100000 0.975000 0.000000
0.125000 0.975000 0.000000
0.150000 0.975000 0.000000
0.175000 0.975000 0.000000
0.200000 0.975000 0.000000
0.225000 0.975000 0.000000
0.250000 0.975000 0.000000
0.275000 0.975000 0.000000
0.300000 0.975000 0.000000
0.325000 0.975000 0.000000
0.000000 0.500000 0.025000
0.025000 0.500000 0.025000
0.050000 0.500000 0.025000
0.075000 0.500000 0.025000
0.100000 0.500000 0.025000
0.125000 0.500000 0.025000
0.150000 0.500000 0.025000
0.175000 0.500000 0.025000
0.200000 0.500000 0.025000
0.225000 0.500000 0.025000
0.250000 0.500000 0.025000
0.275000 0.500000 0.025000
0.300000 0.500000 0.025000
0.325000 0.500000 0.025000
0.000000 0.525000 0.025000
0.025000 0.525000 0.025000
0.050000 0.525000 0.025000
0.075000 0.525000 0.025000
0.100000 0.525000 0.025000
0.125000 0.525000 0.025000
0.150000 0.525000 0.025000
0.175000 0.525000 0.025000
0.200000 0.525000 0.025000
0.225000 0.525000 0.025000
0.250000 0.525000 0.025000
0.275000 0.525000 0.025000
0.300000 0.525000 0.025000
0.325000 0.525000 0.025000
0.000000 0.550000 0.025000
0.025000 0.550000 0.025000
0.050000 0.550000 0.025000
0.075000 0.550000 0.025000
0.100000 0.550000 0.025000
0.125000 0.550000 0.025000
0.150000 0.550000 0.025000
0.175000 0.550000 0.025000
0.200000 0.550000 0.025000
0.225000 0.550000 0.025000
0.250000 0.550000 0.025000
0.275000 0.550000 0.025000
0.300000 0.550000 0.025000
0.325000 0.550000 0.025000
0.000000 0.575000 0.025000
0.025000 0.575000 0.025000
0.050000 0.575000 0.025000
0.075000 0.575000 0.025000
0.100000 0.575000 0.025000
0.125000 0.575000 0.025000
0.150000 0.575000 0.025000
0.175000 0.575000 0.025000
0.200000 0.575000 0.025000
0.225000 0.575000 0.025000
0.250000 0.575000 0.025000
0.275000 0.575000 0.025000
0.300000 0.575000 0.025000
0.325000 0.575000 0.025000
0.000000 0.600000 0.025000
0.025000 0.600000 0.025000
0.050000 0.600000 0.025000
0.075000 0.600000 0.025000
0.100000 0.600000 0.025000
0.125000 0.600000 0.025000
0.150000 0.600000 0.025000
0.175000 0.600000 0.025000
0.200000 0.600000 0.025000
0.225000 0.600000 0.025000
0.250000 0.600000 0.025000
0.275000 0.600000 0.025000
0.300000 0.600000 0.025000
0.325000 0.600000 0.025000
0.000000 0.625000 0.025000
0.025000 0.625000 0.025000
0.050000 0.625000 0.025000
0.075000 0.625000 0.025000
0.100000 0.625000 0.025000
0.125000 0.625000 0.025000
0.150000 0.625000 0.025000
0.175000 0.625000 0.025000
0.200000 0.625000 0.025000
0.225000 0.625000 0.025000
0.250000 0.625000 0.025000
0.275000 0.625000 0.025000
0.300000 0.625000 0.025000
0.325000 0.625000 0.025000
0.000000 0.650000 0.025000
[...]
CELL_DATA 9633
SCALARS density float 1
LOOKUP_TABLE default
0.999767
0.999789
0.999793
0.999797
0.999801
0.999805
0.999808
0.99981
0.999811
0.999813
0.999815
0.999818
0.999821
0.999746
0.999769
0.999781
0.999789
0.999796
0.999801
0.999804
0.999806
0.999809
0.999811
0.999814
0.999817
0.99982
0.99975
0.999762
0.999774
0.999784
0.999793
0.999799
0.999803
0.999805
0.999808
0.999811
0.999814
0.999817
0.999821
0.999754
0.999762
0.999771
0.999782
0.999791
0.999798
0.999802
0.999805
0.999808
0.999811
0.999814
0.999817
0.999821
0.999757
0.999762
0.999771
0.999781
0.99979
0.999798
0.999802
0.999805
0.999808
0.999811
0.999814
0.999817
0.99982
0.999759
0.999765
0.999774
0.999783
0.999792
0.999798
0.999801
0.999804
0.999807
0.999811
0.999814
0.999816
0.99982
0.999762
0.99977
0.999778
0.999788
0.999794
0.9998
0.999802
0.999805
0.999807
0.999811
0.999814
0.999816
0.999819
0.999766
0.999774
0.999788
0.999794
0.999798
0.999801
0.999803
0.999805
0.999808
0.999811
0.999814
0.999816
0.999817
0.99975
0.999803
0.999807
0.999803
0.999802
0.999803
0.999803
0.999805
0.999807
0.999811
0.999814
0.999816
0.999818
0.999908
0.999862
0.99983
0.999814
0.999807
0.999804
0.999802
0.999802
0.999803
0.999809
0.999813
0.999815
0.999818
0.999901
0.999894
0.999849
0.999823
0.999811
0.999806
0.999803
0.999802
0.999803
0.99981
0.999813
0.999815
0.999818
0.999911
0.999898
0.999859
0.999829
0.999814
0.999807
0.999804
0.999803
0.999804
0.99981
0.999812
0.999815
0.999818
0.999906
0.999901
0.999861
0.999831
0.999815
0.999807
0.999804
0.999803
0.999804
0.999809
0.999812
0.999814
0.999818
0.999896
0.999899
0.999861
0.999831
0.999814
0.999806
0.999803
0.999802
0.999803
0.999807
0.999809
0.999812
0.999815
0.99989
0.999894
0.999859
0.999829
0.999813
0.999806
0.999802
0.999802
0.999802
0.999806
0.999806
0.999806
0.999807
0.999886
0.999892
0.999853
0.999826
0.999813
0.999806
0.999803
0.999802
0.999803
0.999805
0.999802
0.999794
0.999788
0.999896
0.999872
0.999842
0.999823
0.999813
0.999808
0.999805
0.999804
0.999804
0.999805
0.9998
0.999781
0.999743
0.999772
0.999826
0.99983
0.999822
0.999814
0.99981
0.999807
0.999806
0.999806
0.999806
0.999799
0.999774
0.999687
0.999802
0.99981
0.999822
0.999821
0.999815
0.999811
0.999809
0.999808
0.999807
0.999808
0.999801
0.999773
0.999678
0.99974
0.999775
0.999782
0.999786
0.999789
0.999793
0.999797
0.999801
0.999804
0.999808
0.999812
0.999816
0.99982
0.999733
0.99976
0.999774
0.999783
0.999789
0.999794
0.999799
0.999803
0.999806
0.99981
0.999813
0.999817
0.999821
0.999739
0.999756
0.999769
0.99978
0.999788
0.999794
0.999799
0.999803
0.999807
0.999811
0.999814
0.999818
0.999822
0.999745
0.999756
0.999768
0.999778
0.999787
0.999794
0.999799
0.999804
0.999807
0.999811
0.999815
0.999818
0.999823
0.999748
0.999758
0.999769
0.999779
0.999787
0.999794
0.9998
0.999804
0.999808
0.999811
0.999815
0.999819
0.999823
0.999751
0.999761
0.999772
0.999782
0.999789
0.999795
0.9998
0.999804
0.999807
0.999811
0.999815
0.999818
0.999822
0.999752
0.999768
0.999781
0.999787
0.999792
0.999797
0.999801
0.999804
0.999808
0.999811
0.999815
0.999818
0.999822
0.99976
0.999796
0.999795
0.999795
0.999796
0.999799
0.999802
0.999805
0.999808
0.999811
0.999814
0.999818
0.999823
0.99986
0.999836
0.999813
0.999804
0.999801
0.999802
0.999803
0.999805
0.999807
0.999811
0.999814
0.999818
0.999821
1.00007
0.999887
0.999835
0.999815
0.999806
0.999804
0.999803
0.999804
0.999806
0.99981
0.999813
0.999817
0.999821
1.0002
0.999933
0.999854
0.999824
0.999811
0.999806
0.999804
0.999804
0.999806
0.99981
0.999813
0.999816
0.999821
1.00021
0.999966
0.999869
0.999831
0.999815
0.999808
0.999805
0.999804
0.999806
0.99981
0.999813
0.999816
0.99982
1.00022
0.999972
0.999877
0.999835
0.999816
0.999808
0.999805
0.999804
0.999806
0.999809
0.999812
0.999815
0.999819
1.00021
0.999972
0.999878
0.999836
0.999817
0.999808
0.999805
0.999804
0.999805
0.999808
0.99981
0.999812
0.999816
1.00021
0.999967
0.999871
0.999833
0.999816
0.999808
0.999805
0.999804
0.999804
0.999806
0.999808
0.999809
0.99981
1.00021
0.999943
0.999862
0.99983
0.999816
0.999809
0.999806
0.999804
0.999805
0.999805
0.999804
0.999803
0.999801
1.00012
0.99991
0.999851
0.999827
0.999816
0.99981
0.999807
0.999806
0.999805
0.999805
0.999801
0.999794
0.999789
0.999912
0.999875
0.999845
0.999827
0.999817
0.999811
0.999808
0.999807
0.999807
0.999806
0.999799
0.999782
0.999747
0.999796
0.999845
0.999839
0.999828
0.999819
0.999814
0.99981
0.999809
0.999808
0.999807
0.999801
0.999782
0.999744
0.999733
0.99977
0.99978
0.999782
0.999785
0.999789
0.999794
0.999799
0.999803
0.999807
0.999812
0.999816
0.999821
0.999722
0.999754
0.999769
0.999779
0.999785
0.999791
0.999796
0.999801
0.999805
0.999809
0.999813
0.999818
0.999823
0.99973
0.99975
0.999765
0.999776
0.999784
0.999791
0.999797
0.999802
0.999806
0.99981
0.999815
0.999819
0.999823
0.999735
0.999751
0.999763
0.999775
0.999784
0.999791
0.999798
0.999803
0.999807
0.999811
0.999815
0.999819
0.999824
0.999739
0.999753
0.999765
0.999776
0.999784
0.999792
0.999798
0.999803
0.999807
0.999811
0.999815
0.99982
0.999824
0.999743
0.999756
0.999768
0.999777
0.999786
0.999793
0.999798
0.999803
0.999808
0.999812
0.999815
0.99982
0.999824
0.999744
0.99976
0.999771
0.999781
0.999788
0.999794
0.999799
0.999804
0.999808
0.999812
0.999815
0.999819
0.999824
0.999745
0.99976
0.999778
0.999786
0.999792
0.999796
0.9998
0.999804
0.999808
0.999811
0.999815
0.999819
0.999824
0.999716
0.999775
0.99979
0.999794
0.999796
0.999799
0.999801
0.999804
0.999807
0.999811
0.999815
0.999819
0.999823
0.999809
0.999813
0.999806
0.999803
0.999801
0.999801
0.999802
0.999804
0.999807
0.999811
0.999814
0.999818
0.999822
0.999783
0.999831
0.99982
0.99981
0.999805
0.999803
0.999803
0.999805
0.999807
0.99981
0.999814
0.999817
0.999822
0.999785
0.99983
0.999827
0.999816
0.999808
0.999805
0.999804
0.999805
0.999807
0.99981
0.999813
0.999817
0.999821
0.999785
0.999833
0.999829
0.999818
0.99981
0.999806
0.999805
0.999805
0.999807
0.999809
0.999812
0.999816
0.99982
0.999786
0.999833
0.999829
0.999819
0.999811
0.999806
0.999805
0.999805
0.999806
0.999809
0.999811
0.999814
0.999818
0.999787
0.999832
0.999829
0.999818
0.99981
0.999807
0.999805
0.999805
0.999806
0.999808
0.99981
0.999812
0.999815
0.999786
0.999836
0.999825
0.999817
0.99981
0.999807
0.999805
0.999805
0.999805
0.999807
0.999808
0.999809
0.999811
0.999829
0.999823
0.999822
0.999816
0.999811
0.999808
0.999806
0.999806
0.999806
0.999806
0.999806
0.999806
0.999804
0.999736
0.999818
0.999824
0.999818
0.999813
0.99981
0.999808
0.999807
0.999807
0.999807
0.999805
0.999798
0.999793
0.999778
0.999812
0.999826
0.999823
0.999817
0.999814
0.999812
0.999811
0.99981
0.99981
0.999808
0.999806
0.999802
0.999736
0.999781
0.99978
0.999781
0.999783
0.999788
0.999793
0.999798
0.999803
0.999808
0.999812
0.999817
0.999823
0.999719
0.999747
0.999769
0.999777
0.999784
0.999789
0.999795
0.9998
0.999805
0.99981
0.999814
0.999819
0.999824
0.99972
0.999748
0.999762
0.999775
0.999783
0.99979
0.999796
0.999802
0.999806
0.999811
0.999815
0.99982
0.999825
0.999726
0.999744
0.999761
0.999773
0.999782
0.99979
0.999797
0.999802
0.999807
0.999812
0.999816
0.999821
0.999825
0.999732
0.99975
0.999763
0.999774
0.999783
0.999791
0.999797
0.999803
0.999808
0.999812
0.999816
0.999821
0.999826
0.999736
0.999752
0.999765
0.999775
0.999784
0.999791
0.999798
0.999803
0.999808
0.999812
0.999816
0.999821
0.999825
0.999738
0.999754
0.999767
0.999777
0.999785
0.999792
0.999798
0.999803
0.999808
0.999812
0.999816
0.99982
0.999825
0.999737
0.999757
0.999769
0.99978
0.999788
0.999794
0.999799
0.999804
0.999808
0.999812
0.999816
0.99982
0.999825
0.999736
0.999757
0.999775
0.999785
0.999791
0.999795
0.9998
0.999804
0.999808
0.999811
0.999815
0.99982
0.999824
0.999745
0.999782
0.999788
0.999792
0.999794
0.999797
0.999801
0.999804
0.999807
0.999811
0.999815
0.999819
0.999823
0.999744
0.999782
0.999795
0.999797
0.999798
0.9998
0.999802
0.999805
0.999807
0.999811
0.999814
0.999818
0.999823
0.99974
0.999784
0.999797
0.9998
0.9998
0.999801
0.999803
0.999805
0.999807
0.99981
0.999814
0.999818
0.999822
0.999738
0.999783
0.999798
0.999801
0.999802
0.999802
0.999803
0.999805
0.999807
0.99981
0.999813
0.999817
0.999821
0.999738
0.999783
0.999798
0.999802
0.999802
0.999802
0.999803
0.999805
0.999807
0.99981
0.999813
0.999816
0.99982
0.999736
0.999783
0.999797
0.999803
0.999803
0.999802
0.999803
0.999804
0.999806
0.999809
0.999812
0.999816
0.999819
0.999734
0.999776
0.9998
0.999804
0.999803
0.999802
0.999803
0.999804
0.999806
0.999808
0.999811
0.999815
0.999819
0.999701
0.999792
0.999805
0.999804
0.999803
0.999802
0.999803
0.999804
0.999805
0.999808
0.999811
0.999814
0.999819
0.999817
0.999808
0.999806
0.999805
0.999805
0.999804
0.999804
0.999805
0.999806
0.999808
0.999811
0.999816
0.999821
0.999818
0.999833
0.999818
0.999815
0.999814
0.999814
0.999813
0.999813
0.999813
0.999815
0.999817
0.999826
0.999859
0.999807
0.999787
0.999782
0.999781
0.999784
0.999788
0.999794
0.999799
0.999804
0.999809
0.999814
0.999819
0.999824
0.999692
0.999758
0.999771
0.999779
0.999784
0.99979
0.999796
0.999801
0.999806
0.999811
0.999815
0.99982
0.999826
0.99972
0.999741
0.999765
0.999776
0.999784
0.99979
0.999797
0.999802
0.999807
0.999812
0.999816
0.999821
0.999826
0.999706
0.999743
0.999762
0.999775
0.999783
0.999791
0.999797
0.999803
0.999808
0.999812
0.999817
0.999822
0.999827
0.99973
0.999747
0.999763
0.999775
0.999783
0.999791
0.999797
0.999803
0.999808
0.999813
0.999817
0.999822
0.999827
0.999731
0.999751
0.999765
0.999775
0.999784
0.999791
0.999798
0.999803
0.999808
0.999813
0.999817
0.999822
0.999827
0.999733
0.999753
0.999766
0.999777
0.999784
0.999792
0.999798
0.999803
0.999808
0.999812
0.999817
0.999821
0.999826
0.999734
0.999754
0.999768
0.999778
0.999785
0.999792
0.999798
0.999804
0.999808
0.999812
0.999816
0.999821
0.999826
0.999735
0.999756
0.999769
0.99978
0.999787
0.999793
0.999799
0.999804
0.999808
0.999812
0.999816
0.99982
0.999825
0.999738
0.999762
0.999777
0.999784
0.99979
0.999795
0.999799
0.999804
0.999808
0.999811
0.999815
0.99982
0.999824
0.999742
0.999766
0.999779
0.999787
0.999792
0.999796
0.9998
0.999804
0.999808
0.999811
0.999815
0.999819
0.999824
0.99974
0.999766
0.99978
0.999789
0.999793
0.999797
0.999801
0.999804
0.999808
0.999811
0.999815
0.999819
0.999823
0.999732
0.999763
0.99978
0.999789
0.999794
0.999798
0.999801
0.999804
0.999808
0.999811
0.999814
0.999819
0.999823
0.999731
0.999762
0.99978
0.99979
0.999795
0.999798
0.999801
0.999804
0.999807
0.999811
0.999814
0.999818
0.999823
0.999727
0.999762
0.999784
0.999791
0.999795
0.999798
0.999801
0.999803
0.999806
0.99981
0.999814
0.999819
0.999823
0.999723
0.999779
0.999788
0.999792
0.999794
0.999797
0.999799
0.999802
0.999805
0.999809
0.999815
0.99982
0.999826
0.999796
0.999797
0.99979
0.99979
0.999792
0.999794
0.999796
0.999799
0.999802
0.999807
0.999813
0.999824
0.999835
0.999961
0.999802
0.99978
0.99978
0.999783
0.999786
0.999789
0.999792
0.999795
0.9998
0.999807
0.999823
0.99986
0.999976
0.999788
0.999758
0.999755
0.999758
0.999763
0.999767
0.999771
0.999777
0.999783
0.999792
0.999811
0.999872
0.999848
0.999794
0.999783
0.999783
0.999785
0.99979
0.999795
0.999801
0.999806
0.999811
0.999816
0.999821
0.999826
0.999777
0.999769
0.999778
0.999782
0.999786
0.999791
0.999797
0.999802
0.999807
0.999812
0.999817
0.999822
0.999827
0.999707
0.999762
0.999773
0.999781
0.999786
0.999792
0.999798
0.999803
0.999808
0.999813
0.999818
0.999823
0.999828
0.999699
0.99975
0.999771
0.999779
0.999786
0.999792
0.999798
0.999804
0.999809
0.999814
0.999818
0.999823
0.999829
0.999714
0.99975
0.999768
0.999779
0.999786
0.999792
0.999799
0.999804
0.999809
0.999814
0.999818
0.999823
0.999829
0.99973
0.999753
0.999769
0.999779
0.999786
0.999792
0.999799
0.999804
0.999809
0.999814
0.999818
0.999823
0.999828
0.999732
0.999757
0.99977
0.999779
0.999786
0.999792
0.999798
0.999804
0.999809
0.999813
0.999818
0.999823
0.999827
0.999734
0.999758
0.999772
0.999779
0.999786
0.999792
0.999798
0.999804
0.999809
0.999813
0.999817
0.999822
0.999827
0.999734
0.999756
0.999768
0.999779
0.999786
0.999793
0.999799
0.999804
0.999808
0.999812
0.999816
0.999821
0.999826
0.999742
0.999759
0.999771
0.99978
0.999787
0.999793
0.999799
0.999804
0.999808
0.999812
0.999816
0.99982
0.999825
0.999749
0.99976
0.999772
0.999782
0.999788
0.999794
0.999799
0.999804
0.999808
0.999812
0.999816
0.99982
0.999825
0.999748
0.999759
0.999772
0.999782
0.999789
0.999795
0.9998
0.999804
0.999808
0.999812
0.999816
0.99982
0.999824
0.999736
0.999757
0.999771
0.999782
0.999789
0.999795
0.9998
0.999804
0.999808
0.999811
0.999815
0.99982
0.999824
0.999728
0.999754
0.999771
0.999782
0.999789
0.999795
0.9998
0.999804
0.999807
0.999811
0.999815
0.99982
0.999824
0.999724
0.999752
0.999769
0.999782
0.999789
0.999795
0.999799
0.999803
0.999807
0.999811
0.999815
0.99982
0.999825
0.999718
0.999745
0.99977
0.999782
0.999789
0.999794
0.999798
0.999802
0.999806
0.99981
0.999815
0.999821
0.999827
0.999681
0.99975
0.999774
0.999783
0.999788
0.999793
0.999797
0.9998
0.999804
0.999809
0.999815
0.999821
0.99983
0.999772
0.999781
0.999779
0.999781
0.999786
0.99979
0.999794
0.999798
0.999802
0.999807
0.999814
0.999826
0.999835
0.999757
0.999786
0.999778
0.999779
0.999782
0.999787
0.99979
0.999794
0.999798
0.999803
0.999812
0.999828
0.999866
0.999814
0.99979
0.999787
0.999787
0.999788
0.999792
0.999797
0.999803
0.999808
0.999812
0.999817
0.999823
0.999828
0.999696
0.999782
0.999785
0.999786
0.999789
0.999793
0.999799
0.999804
0.999809
0.999814
0.999819
0.999824
0.999829
0.999733
0.999762
0.999783
0.999787
0.999789
0.999794
0.9998
0.999805
0.99981
0.999815
0.99982
0.999825
0.99983
0.999725
0.999767
0.999779
0.999786
0.99979
0.999795
0.9998
0.999806
0.999811
0.999815
0.99982
0.999825
0.99983
0.999741
0.999769
0.99978
0.999785
0.99979
0.999795
0.9998
0.999806
0.999811
0.999815
0.99982
0.999825
0.99983
0.99974
0.999771
0.99978
0.999786
0.999789
0.999795
0.9998
0.999806
0.99981
0.999815
0.999819
0.999824
0.99983
0.999745
0.999772
0.999782
0.999785
0.999789
0.999794
0.9998
0.999805
0.99981
0.999814
0.999819
0.999824
0.999829
0.999745
0.999777
0.999779
0.999783
0.999788
0.999794
0.999799
0.999805
0.999809
0.999814
0.999818
0.999823
0.999828
0.999739
0.999753
0.999772
0.999781
0.999787
0.999794
0.999799
0.999804
0.999809
0.999813
0.999817
0.999822
0.999827
0.99974
0.999759
0.99977
0.99978
0.999787
0.999794
0.999799
0.999804
0.999808
0.999813
0.999817
0.999821
0.999826
0.999746
0.999759
0.999771
0.99978
0.999787
0.999794
0.999799
0.999804
0.999808
0.999812
0.999816
0.999821
0.999826
0.999743
0.999758
0.99977
0.99978
0.999787
0.999794
0.999799
0.999804
0.999808
0.999812
0.999816
0.999821
0.999825
0.999734
0.999754
0.999768
0.999779
0.999787
0.999793
0.999799
0.999804
0.999808
0.999812
0.999816
0.999821
0.999825
0.999731
0.999751
0.999766
0.999778
0.999786
0.999793
0.999799
0.999804
0.999808
0.999812
0.999816
0.999821
0.999825
0.999729
0.999749
0.999765
0.999777
0.999786
0.999793
0.999798
0.999803
0.999807
0.999812
0.999816
0.999821
0.999826
0.999725
0.999748
0.999764
0.999777
0.999786
0.999793
0.999798
0.999803
0.999807
0.999812
0.999816
0.999821
0.999827
0.999722
0.999744
0.999767
0.999779
0.999787
0.999793
0.999798
0.999803
0.999807
0.999812
0.999817
0.999823
0.999829
0.999728
0.999767
0.999776
0.999783
0.999789
0.999794
0.999798
0.999802
0.999807
0.999812
0.999818
0.999824
0.999833
0.999735
0.999769
0.999781
0.999787
0.999792
0.999797
0.999801
0.999804
0.999808
0.999813
0.99982
0.999832
0.999843
0.999764
0.999799
0.999796
0.999792
0.999791
0.999794
0.999799
0.999804
0.999809
0.999814
0.999819
0.999825
0.99983
0.999832
0.999803
0.999795
0.999792
0.999792
0.999795
0.9998
0.999806
0.999811
0.999815
0.99982
0.999826
0.999831
0.999791
0.999816
0.999798
0.999793
0.999793
0.999796
0.999801
0.999807
0.999811
0.999816
0.999821
0.999826
0.999832
0.999797
0.999807
0.999801
0.999794
0.999793
0.999797
0.999802
0.999807
0.999812
0.999817
0.999821
0.999827
0.999832
0.999799
0.99981
0.9998
0.999795
0.999794
0.999797
0.999802
0.999807
0.999812
0.999816
0.999821
0.999826
0.999832
0.999792
0.999807
0.9998
0.999794
0.999793
0.999797
0.999802
0.999807
0.999812
0.999816
0.999821
0.999826
0.999831
0.999798
0.999811
0.999797
0.999792
0.999792
0.999796
0.999801
0.999806
0.999811
0.999815
0.99982
0.999825
0.99983
0.999827
0.999802
0.999791
0.999789
0.999791
0.999795
0.9998
0.999806
0.99981
0.999814
0.999819
0.999823
0.999829
0.999716
0.999771
0.999783
0.999787
0.99979
0.999795
0.9998
0.999805
0.999809
0.999813
0.999818
0.999823
0.999828
0.99975
0.999759
0.999776
0.999784
0.999789
0.999795
0.9998
0.999805
0.999809
0.999813
0.999817
0.999822
0.999827
0.999748
0.999763
0.999773
0.999782
0.999788
0.999794
0.9998
0.999804
0.999809
0.999813
0.999817
0.999821
0.999826
0.999744
0.99976
0.999772
0.99978
0.999787
0.999794
0.999799
0.999804
0.999808
0.999812
0.999817
0.999821
0.999826
0.999737
0.999755
0.999769
0.999779
0.999787
0.999793
0.999799
0.999804
0.999808
0.999812
0.999817
0.999821
0.999826
0.999734
0.999752
0.999767
0.999778
0.999786
0.999793
0.999799
0.999804
0.999808
0.999812
0.999817
0.999821
0.999826
0.999733
0.999751
0.999766
0.999777
0.999785
0.999793
0.999798
0.999804
0.999808
0.999812
0.999817
0.999822
0.999827
0.999734
0.99975
0.999765
0.999776
0.999785
0.999793
0.999799
0.999804
0.999808
0.999813
0.999817
0.999822
0.999827
0.999735
0.999752
0.999765
0.999778
0.999787
0.999794
0.9998
0.999804
0.999809
0.999813
0.999818
0.999823
0.999829
0.999737
0.999758
0.999773
0.999782
0.99979
0.999796
0.999801
0.999805
0.999809
0.999814
0.999819
0.999825
0.999831
0.999746
0.999762
0.999777
0.999787
0.999794
0.9998
0.999804
0.999807
0.99981
0.999815
0.999821
0.999827
0.999832
0.999842
0.999829
0.999806
0.999795
0.999792
0.999795
0.9998
0.999806
0.999811
0.999816
0.999821
0.999827
0.999832
0.999969
0.999843
0.999806
0.999796
0.999794
0.999797
0.999802
0.999807
0.999812
0.999817
0.999822
0.999828
0.999833
1.00009
0.999866
0.999812
0.999797
0.999794
0.999797
0.999802
0.999808
0.999813
0.999818
0.999823
0.999828
0.999834
1.00011
0.999889
0.999818
0.999799
0.999795
0.999798
0.999803
0.999808
0.999813
0.999818
0.999823
0.999828
0.999833
1.0001
0.999893
0.999823
0.9998
0.999795
0.999798
0.999803
0.999808
0.999813
0.999818
0.999822
0.999828
0.999833
1.00009
0.999891
0.99982
0.9998
0.999795
0.999798
0.999803
0.999808
0.999813
0.999817
0.999822
0.999827
0.999832
1.00009
0.999872
0.999814
0.999797
0.999794
0.999797
0.999802
0.999807
0.999812
0.999816
0.999821
0.999826
0.999831
1.00002
0.999848
0.999805
0.999795
0.999794
0.999797
0.999801
0.999806
0.999811
0.999815
0.999819
0.999824
0.999829
0.999855
0.999821
0.9998
0.999793
0.999793
0.999796
0.999801
0.999806
0.99981
0.999814
0.999818
0.999823
0.999828
0.999755
0.999794
0.999792
0.999791
0.999792
0.999796
0.9998
0.999805
0.999809
0.999813
0.999818
0.999822
0.999827
0.99975
0.99977
0.999784
0.999788
0.999791
0.999795
0.9998
0.999805
0.999809
0.999813
0.999817
0.999822
0.999827
0.999744
0.999765
0.999776
0.999785
0.99979
0.999795
0.9998
0.999804
0.999809
0.999813
0.999817
0.999822
0.999827
0.999738
0.999759
0.999773
0.999782
0.999788
0.999794
0.999799
0.999804
0.999809
0.999813
0.999817
0.999822
0.999827
0.999733
0.999757
0.999771
0.999781
0.999787
0.999793
0.999799
0.999804
0.999809
0.999813
0.999817
0.999822
0.999827
0.999734
0.999755
0.999771
0.999779
0.999787
0.999793
0.999799
0.999804
0.999809
0.999813
0.999818
0.999822
0.999827
0.999736
0.999753
0.999765
0.999778
0.999786
0.999794
0.9998
0.999805
0.999809
0.999814
0.999818
0.999823
0.999828
0.999739
0.999754
0.999767
0.999778
0.999788
0.999795
0.999801
0.999806
0.99981
0.999815
0.999819
0.999824
0.999829
0.999745
0.999758
0.999771
0.999783
0.999791
0.999798
0.999803
0.999807
0.999811
0.999816
0.99982
0.999825
0.999829
0.999754
0.999763
0.999776
0.999786
0.999795
0.999802
0.999806
0.999809
0.999812
0.999817
0.999821
0.999824
0.999828
0.999708
0.999778
0.999788
0.999789
0.999791
0.999795
0.999801
0.999807
0.999812
0.999817
0.999822
0.999828
0.999834
0.999754
0.999782
0.999788
0.999789
0.999792
0.999796
0.999802