# vtk DataFile Version 2.0
I need something to put here
ASCII

DATASET STRUCTURED_GRID
DIMENSIONS 14 21 40
POINTS 11760 float
0.000000 0.000000 0.000000
0.025000 0.000000 0.000000
0.050000 0.000000 0.000000
0.075000 0.000000 0.000000
0.100000 0.000000 0.000000
0.125000 0.000000 0.000000
0.150000 0.000000 0.000000
0.175000 0.000000 0.000000
0.200000 0.000000 0.000000
0.225000 0.000000 0.000000
0.250000 0.000000 0.000000
0.275000 0.000000 0.000000
0.300000 0.000000 0.000000
0.325000 0.000000 0.000000
0.000000 0.025000 0.000000
0.025000 0.025000 0.000000
0.050000 0.025000 0.000000
0.075000 0.025000 0.000000
0.100000 0.025000 0.000000
0.125000 0.025000 0.000000
0.150000 0.025000 0.000000
0.175000 0.025000 0.000000
0.200000 0.025000 0.000000
0.225000 0.025000 0.000000
0.250000 0.025000 0.000000
0.275000 0.025000 0.000000
0.300000 0.025000 0.000000
0.325000 0.025000 0.000000
0.000000 0.050000 0.000000
0.025000 0.050000 0.000000
0.050000 0.050000 0.000000
0.075000 0.050000 0.000000
0.100000 0.050000 0.000000
0.125000 0.050000 0.000000
0.150000 0.050000 0.000000
0.175000 0.050000 0.000000
0.200000 0.050000 0.000000
0.225000 0.050000 0.000000
0.250000 0.050000 0.000000
0.275000 0.050000 0.000000
0.300000 0.050000 0.000000
0.325000 0.050000 0.000000
0.000000 0.075000 0.000000
0.025000 0.075000 0.000000
0.050000 0.075000 0.000000
0.075000 0.075000 0.000000
0.100000 0.075000 0.000000
0.125000 0.075000 0.000000
0.150000 0.075000 0.000000
0.175000 0.075000 0.000000
0.200000 0.075000 0.000000
0.225000 0.075000 0.000000
0.250000 0.075000 0.000000
0.275000 0.075000 0.000000
0.300000 0.075000 0.000000
0.325000 0.075000 0.000000
0.000000 0.100000 0.000000
0.025000 0.100000 0.000000
0.050000 0.100000 0.000000
0.075000 0.100000 0.000000
0.100000 0.100000 0.000000
0.125000 0.100000 0.000000
0.150000 0.100000 0.000000
0.175000 0.100000 0.000000
0.200000 0.100000 0.000000
0.225000 0.100000 0.000000
0.250000 0.100000 0.000000
0.275000 0.100000 0.000000
0.300000 0.100000 0.000000
0.325000 0.100000 0.000000
0.000000 0.125000 0.000000
0.025000 0.125000 0.000000
0.050000 0.125000 0.000000
0.075000 0.125000 0.000000
0.100000 0.125000 0.000000
0.125000 0.125000 0.000000
0.150000 0.125000 0.000000
0.175000 0.125000 0.000000
0.200000 0.125000 0.000000
0.225000 0.125000 0.000000
0.250000 0.125000 0.000000
0.275000 0.125000 0.000000
0.300000 0.125000 0.000000
0.325000 0.125000 0.000000
0.000000 0.150000 0.000000
0.025000 0.150000 0.000000
0.050000 0.150000 0.000000
0.075000 0.150000 0.000000
0.100000 0.150000 0.000000
0.125000 0.150000 0.000000
0.150000 0.150000 0.000000
0.175000 0.150000 0.000000
0.200000 0.150000 0.000000
0.225000 0.150000 0.000000
0.250000 0.150000 0.000000
0.275000 0.150000 0.000000
0.300000 0.150000 0.000000
0.325000 0.150000 0.000000
0.000000 0.175000 0.000000
0.025000 0.175000 0.000000
0.050000 0.175000 0.000000
0.075000 0.175000 0.000000
0.100000 0.175000 0.000000
0.125000 0.175000 0.000000
0.150000 0.175000 0.000000
0.175000 0.175000 0.000000
0.200000 0.175000 0.000000
0.225000 0.175000 0.000000
0.250000 0.175000 0.000000
0.275000 0.175000 0.000000
0.300000 0.175000 0.000000
0.325000 0.175000 0.000000
0.000000 0.200000 0.000000
0.025000 0.200000 0.000000
0.050000 0.200000 0.000000
0.075000 0.200000 0.000000
0.100000 0.200000 0.000000
0.125000 0.200000 0.000000
0.150000 0.200000 0.000000
0.175000 0.200000 0.000000
0.200000 0.200000 0.000000
0.225000 0.200000 0.000000
0.250000 0.200000 0.000000
0.275000 0.200000 0.000000
0.300000 0.200000 0.000000
0.325000 0.200000 0.000000
0.000000 0.225000 0.000000
0.025000 0.225000 0.000000
0.050000 0.225000 0.000000
0.075000 0.225000 0.000000
0.100000 0.225000 0.000000
0.125000 0.225000 0.000000
0.150000 0.225000 0.000000
0.175000 0.225000 0.000000
0.200000 0.225000 0.000000
0.225000 0.225000 0.000000
0.250000 0.225000 0.000000
0.275000 0.225000 0.000000
0.300000 0.225000 0.000000
0.325000 0.225000 0.000000
0.000000 0.250000 0.000000
0.025000 0.250000 0.000000
0.050000 0.250000 0.000000
0.075000 0.250000 0.000000
0.100000 0.250000 0.000000
0.125000 0.250000 0.000000
0.150000 0.250000 0.000000
0.175000 0.250000 0.000000
0.200000 0.250000 0.000000
0.225000 0.250000 0.000000
0.250000 0.250000 0.000000
0.275000 0.250000 0.000000
0.300000 0.250000 0.000000
0.325000 0.250000 0.000000
0.000000 0.275000 0.000000
0.025000 0.275000 0.000000
0.050000 0.275000 0.000000
0.075000 0.275000 0.000000
0.100000 0.275000 0.000000
0.125000 0.275000 0.000000
0.150000 0.275000 0.000000
0.175000 0.275000 0.000000
0.200000 0.275000 0.000000
0.225000 0.275000 0.000000
0.250000 0.275000 0.000000
0.275000 0.275000 0.000000
0.300000 0.275000 0.000000
0.325000 0.275000 0.000000
0.000000 0.300000 0.000000
0.025000 0.300000 0.000000
0.050000 0.300000 0.000000
0.075000 0.300000 0.000000
0.100000 0.300000 0.000000
0.125000 0.300000 0.000000
0.150000 0.300000 0.000000
0.175000 0.300000 0.000000
0.200000 0.300000 0.000000
0.225000 0.300000 0.000000
0.250000 0.300000 0.000000
0.275000 0.300000 0.000000
0.300000 0.300000 0.000000
0.325000 0.300000 0.000000
0.000000 0.325000 0.000000
0.025000 0.325000 0.000000
0.050000 0.325000 0.000000
0.075000 0.325000 0.000000
0.100000 0.325000 0.000000
0.125000 0.325000 0.000000
0.150000 0.325000 0.000000
0.175000 0.325000 0.000000
0.200000 0.325000 0.000000
0.225000 0.325000 0.000000
0.250000 0.325000 0.000000
0.275000 0.325000 0.000000
0.300000 0.325000 0.000000
0.325000 0.325000 0.000000
0.000000 0.350000 0.000000
0.025000 0.350000 0.000000
0.050000 0.350000 0.000000
0.075000 0.350000 0.000000
0.100000 0.350000 0.000000
0.125000 0.350000 0.000000
0.150000 0.350000 0.000000
0.175000 0.350000 0.000000
0.200000 0.350000 0.000000
0.225000 0.350000 0.000000
0.250000 0.350000 0.000000
0.275000 0.350000 0.000000
0.300000 0.350000 0.000000
0.325000 0.350000 0.000000
0.000000 0.375000 0.000000
0.025000 0.375000 0.000000
0.050000 0.375000 0.000000
0.075000 0.375000 0.000000
0.100000 0.375000 0.000000
0.125000 0.375000 0.000000
0.150000 0.375000 0.000000
0.175000 0.375000 0.000000
0.200000 0.375000 0.000000
0.225000 0.375000 0.000000
0.250000 0.375000 0.000000
0.275000 0.375000 0.000000
0.300000 0.375000 0.000000
0.325000 0.375000 0.000000
0.000000 0.400000 0.000000
0.025000 0.400000 0.000000
0.050000 0.400000 0.000000
0.075000 0.400000 0.000000
0.100000 0.400000 0.000000
0.125000 0.400000 0.000000
0.150000 0.400000 0.000000
0.175000 0.400000 0.000000
0.200000 0.400000 0.000000
0.225000 0.400000 0.000000
0.250000 0.400000 0.000000
0.275000 0.400000 0.000000
0.300000 0.400000 0.000000
0.325000 0.400000 0.000000
0.000000 0.425000 0.000000
0.025000 0.425000 0.000000
0.050000 0.425000 0.000000
0.075000 0.425000 0.000000
0.100000 0.425000 0.000000
0.125000 0.425000 0.000000
0.150000 0.425000 0.000000
0.175000 0.425000 0.000000
0.200000 0.425000 0.000000
0.225000 0.425000 0.000000
0.250000 0.425000 0.000000
0.275000 0.425000 0.000000
0.300000 0.425000 0.000000
0.325000 0.425000 0.000000
0.000000 0.450000 0.000000
0.025000 0.450000 0.000000
0.050000 0.450000 0.000000
0.075000 0.450000 0.000000
0.100000 0.450000 0.000000
0.125000 0.450000 0.000000
0.150000 0.450000 0.000000
0.175000 0.450000 0.000000
0.200000 0.450000 0.000000
0.225000 0.450000 0.000000
0.250000 0.450000 0.000000
0.275000 0.450000 0.000000
0.300000 0.450000 0.000000
0.325000 0.450000 0.000000
0.000000 0.475000 0.000000
0.025000 0.475000 0.000000
0.050000 0.475000 0.000000
0.075000 0.475000 0.000000
0.100000 0.475000 0.000000
0.125000 0.475000 0.000000
0.150000 0.475000 0.000000
0.175000 0.475000 0.000000
0.200000 0.475000 0.000000
0.225000 0.475000 0.000000
0.250000 0.475000 0.000000
0.275000 0.475000 0.000000
0.300000 0.475000 0.000000
0.325000 0.475000 0.000000
0.000000 0.500000 0.000000
0.025000 0.500000 0.000000
0.050000 0.500000 0.000000
0.075000 0.500000 0.000000
0.100000 0.500000 0.000000
0.125000 0.500000 0.000000
0.150000 0.500000 0.000000
0.175000 0.500000 0.000000
0.200000 0.500000 0.000000
0.225000 0.500000 0.000000
0.250000 0.500000 0.000000
0.275000 0.500000 0.000000
0.300000 0.500000 0.000000
0.325000 0.500000 0.000000
0.000000 0.000000 0.025000
0.025000 0.000000 0.025000
0.050000 0.000000 0.025000
0.075000 0.000000 0.025000
0.100000 0.000000 0.025000
0.125000 0.000000 0.025000
0.150000 0.000000 0.025000
0.175000 0.000000 0.025000
0.200000 0.000000 0.025000
0.225000 0.000000 0.025000
0.250000 0.000000 0.025000
0.275000 0.000000 0.025000
0.300000 0.000000 0.025000
0.325000 0.000000 0.025000
0.000000 0.025000 0.025000
0.025000 0.025000 0.025000
0.050000 0.025000 0.025000
0.075000 0.025000 0.025000
0.100000 0.025000 0.025000
0.125000 0.025000 0.025000
0.150000 0.025000 0.025000
0.175000 0.025000 0.025000
0.200000 0.025000 0.025000
0.225000 0.025000 0.025000
0.250000 0.025000 0.025000
0.275000 0.025000 0.025000
0.300000 0.025000 0.025000
0.325000 0.025000 0.025000
0.000000 0.050000 0.025000
0.025000 0.050000 0.025000
0.050000 0.050000 0.025000
0.075000 0.050000 0.025000
0.100000 0.050000 0.025000
0.125000 0.050000 0.025000
0.150000 0.050000 0.025000
0.175000 0.050000 0.025000
0.200000 0.050000 0.025000
0.225000 0.050000 0.025000
0.250000 0.050000 0.025000
0.275000 0.050000 0.025000
0.300000 0.050000 0.025000
0.325000 0.050000 0.025000
0.000000 0.075000 0.025000
0.025000 0.075000 0.025000
0.050000 0.075000 0.025000
0.075000 0.075000 0.025000
0.100000 0.075000 0.025000
0.125000 0.075000 0.025000
0.150000 0.075000 0.025000
0.175000 0.075000 0.025000
0.200000 0.075000 0.025000
0.225000 0.075000 0.025000
0.250000 0.075000 0.025000
0.275000 0.075000 0.025000
0.300000 0.075000 0.025000
0.325000 0.075000 0.025000
0.000000 0.100000 0.025000
0.025000 0.100000 0.025000
0.050000 0.100000 0.025000
0.075000 0.100000 0.025000
0.100000 0.100000 0.025000
0.125000 0.100000 0.025000
0.150000 0.100000 0.025000
0.175000 0.100000 0.025000
0.200000 0.100000 0.025000
0.225000 0.100000 0.025000
0.250000 0.100000 0.025000
0.275000 0.100000 0.025000
0.300000 0.100000 0.025000
0.325000 0.100000 0.025000
0.000000 0.125000 0.025000
[...]
CELL_DATA 10140
SCALARS density float 1
LOOKUP_TABLE default
0.999767
0.999762
0.999762
0.999763
0.999766
0.999769
0.999773
0.999777
0.999781
0.999788
0.999794
0.999799
0.999804
0.999758
0.999756
0.999756
0.999758
0.999761
0.999765
0.999769
0.999773
0.999778
0.999785
0.99979
0.999796
0.999802
0.999754
0.999751
0.999752
0.999755
0.999758
0.999762
0.999766
0.99977
0.999775
0.999783
0.999788
0.999794
0.9998
0.99975
0.999747
0.999749
0.999752
0.999756
0.99976
0.999764
0.999769
0.999774
0.999782
0.999787
0.999793
0.999799
0.999748
0.999745
0.999747
0.999751
0.999755
0.999759
0.999764
0.999768
0.999774
0.999781
0.999787
0.999793
0.999799
0.999745
0.999744
0.999746
0.99975
0.999755
0.99976
0.999765
0.999769
0.999775
0.999782
0.999788
0.999793
0.9998
0.999745
0.999744
0.999747
0.999751
0.999756
0.999761
0.999766
0.99977
0.999776
0.999783
0.999789
0.999794
0.9998
0.999746
0.999744
0.999747
0.999752
0.999757
0.999763
0.999767
0.999771
0.999776
0.999784
0.999789
0.999794
0.9998
0.999746
0.999744
0.999747
0.999753
0.999758
0.999764
0.999768
0.999772
0.999777
0.999785
0.99979
0.999795
0.999801
0.999745
0.999743
0.999747
0.999752
0.999759
0.999765
0.99977
0.999775
0.99978
0.999787
0.999792
0.999797
0.999803
0.999745
0.999744
0.999747
0.999753
0.999759
0.999766
0.999771
0.999776
0.999782
0.999788
0.999793
0.999798
0.999804
0.999747
0.999744
0.999747
0.999753
0.99976
0.999767
0.999773
0.999778
0.999783
0.999789
0.999794
0.999799
0.999805
0.999749
0.999743
0.999747
0.999754
0.999761
0.999769
0.999774
0.999779
0.999784
0.999791
0.999796
0.999801
0.999806
0.999744
0.99974
0.999745
0.999754
0.999763
0.999771
0.999777
0.999783
0.999788
0.999793
0.999798
0.999803
0.999808
0.999718
0.999735
0.999748
0.99976
0.999771
0.999779
0.999785
0.99979
0.999795
0.999798
0.999802
0.999807
0.999811
0.999706
0.999735
0.999753
0.999767
0.999777
0.999785
0.999791
0.999795
0.999799
0.999801
0.999805
0.99981
0.999814
0.999714
0.999745
0.999761
0.999772
0.99978
0.999788
0.999793
0.999797
0.9998
0.999802
0.999806
0.999811
0.999815
0.999751
0.999765
0.999767
0.999772
0.999778
0.999785
0.999791
0.999795
0.999799
0.999801
0.999806
0.999811
0.999816
0.999845
0.999787
0.999768
0.999764
0.999767
0.999772
0.999778
0.999784
0.99979
0.999794
0.9998
0.999807
0.999813
0.999848
0.999788
0.999771
0.999767
0.999767
0.99977
0.999773
0.999777
0.999782
0.99979
0.999797
0.999803
0.99981
0.999759
0.999756
0.999756
0.999758
0.999761
0.999765
0.999769
0.999773
0.999778
0.999785
0.999791
0.999796
0.999802
0.999751
0.999752
0.999754
0.999756
0.999759
0.999763
0.999767
0.999772
0.999777
0.999784
0.999789
0.999795
0.999802
0.999746
0.999748
0.999751
0.999754
0.999757
0.999762
0.999766
0.999771
0.999776
0.999782
0.999788
0.999795
0.999801
0.999742
0.999745
0.999748
0.999752
0.999756
0.99976
0.999765
0.99977
0.999775
0.999782
0.999788
0.999794
0.999801
0.999739
0.999743
0.999746
0.99975
0.999755
0.99976
0.999765
0.99977
0.999775
0.999782
0.999788
0.999794
0.999801
0.999737
0.999741
0.999745
0.99975
0.999755
0.99976
0.999765
0.99977
0.999776
0.999782
0.999789
0.999795
0.999801
0.999737
0.999741
0.999745
0.99975
0.999755
0.999761
0.999766
0.999771
0.999777
0.999783
0.999789
0.999795
0.999802
0.999737
0.999741
0.999745
0.99975
0.999756
0.999762
0.999767
0.999772
0.999778
0.999784
0.99979
0.999796
0.999803
0.999737
0.999741
0.999745
0.999751
0.999756
0.999762
0.999768
0.999773
0.999779
0.999785
0.999791
0.999797
0.999803
0.999736
0.99974
0.999745
0.999751
0.999757
0.999763
0.999769
0.999775
0.999781
0.999787
0.999793
0.999798
0.999804
0.999737
0.999741
0.999745
0.999751
0.999758
0.999764
0.99977
0.999776
0.999782
0.999788
0.999794
0.999799
0.999805
0.999739
0.999741
0.999745
0.999751
0.999758
0.999765
0.999772
0.999778
0.999784
0.99979
0.999795
0.999801
0.999807
0.999741
0.999741
0.999745
0.999752
0.999759
0.999767
0.999774
0.99978
0.999786
0.999791
0.999797
0.999802
0.999808
0.99974
0.999737
0.999744
0.999753
0.999761
0.99977
0.999777
0.999783
0.999788
0.999794
0.999799
0.999804
0.99981
0.999704
0.999727
0.999743
0.999755
0.999765
0.999774
0.999781
0.999787
0.999792
0.999797
0.999801
0.999806
0.999812
0.999688
0.999724
0.999745
0.999759
0.99977
0.999778
0.999785
0.999791
0.999795
0.999799
0.999804
0.999809
0.999814
0.999696
0.999734
0.999753
0.999765
0.999773
0.999781
0.999787
0.999792
0.999797
0.999801
0.999805
0.99981
0.999815
0.999737
0.999759
0.999765
0.999769
0.999775
0.999781
0.999787
0.999792
0.999797
0.999801
0.999805
0.999811
0.999816
0.999863
0.999799
0.999777
0.999772
0.999774
0.999779
0.999784
0.999789
0.999794
0.999799
0.999804
0.99981
0.999816
0.999875
0.999805
0.999782
0.999776
0.999777
0.999781
0.999785
0.99979
0.999794
0.999799
0.999805
0.999811
0.999816
0.999754
0.999751
0.999752
0.999755
0.999758
0.999762
0.999766
0.99977
0.999776
0.999783
0.999789
0.999795
0.999801
0.999746
0.999748
0.999751
0.999754
0.999758
0.999762
0.999766
0.999771
0.999776
0.999782
0.999789
0.999795
0.999801
0.999741
0.999745
0.999748
0.999752
0.999756
0.999761
0.999765
0.99977
0.999776
0.999782
0.999788
0.999794
0.999801
0.999738
0.999742
0.999746
0.99975
0.999755
0.99976
0.999765
0.99977
0.999776
0.999782
0.999788
0.999794
0.999801
0.999735
0.99974
0.999744
0.999749
0.999754
0.999759
0.999765
0.99977
0.999776
0.999782
0.999788
0.999795
0.999801
0.999732
0.999738
0.999743
0.999748
0.999754
0.999759
0.999765
0.999771
0.999777
0.999783
0.999789
0.999795
0.999802
0.999732
0.999738
0.999743
0.999748
0.999754
0.99976
0.999766
0.999772
0.999778
0.999784
0.99979
0.999796
0.999803
0.999732
0.999738
0.999743
0.999749
0.999754
0.999761
0.999767
0.999773
0.999779
0.999785
0.999791
0.999797
0.999804
0.999732
0.999738
0.999743
0.999749
0.999755
0.999761
0.999768
0.999774
0.99978
0.999786
0.999792
0.999798
0.999805
0.99973
0.999737
0.999743
0.999749
0.999755
0.999762
0.999769
0.999775
0.999781
0.999787
0.999793
0.999799
0.999806
0.999731
0.999737
0.999743
0.999749
0.999756
0.999763
0.99977
0.999776
0.999782
0.999788
0.999794
0.9998
0.999807
0.999733
0.999737
0.999743
0.999749
0.999756
0.999764
0.999771
0.999778
0.999784
0.99979
0.999796
0.999802
0.999808
0.999735
0.999737
0.999742
0.999749
0.999757
0.999765
0.999773
0.99978
0.999786
0.999792
0.999797
0.999803
0.999809
0.999733
0.999733
0.99974
0.99975
0.999759
0.999767
0.999775
0.999782
0.999788
0.999794
0.999799
0.999805
0.999811
0.999692
0.99972
0.999737
0.999751
0.999761
0.99977
0.999778
0.999785
0.999791
0.999796
0.999801
0.999807
0.999812
0.999674
0.999715
0.999739
0.999754
0.999765
0.999774
0.999781
0.999788
0.999793
0.999798
0.999803
0.999809
0.999814
0.999684
0.999726
0.999747
0.99976
0.999769
0.999777
0.999784
0.99979
0.999795
0.9998
0.999805
0.99981
0.999815
0.999728
0.999754
0.999762
0.999768
0.999773
0.999779
0.999785
0.999791
0.999796
0.999801
0.999806
0.999811
0.999817
0.999869
0.999804
0.999781
0.999775
0.999777
0.999781
0.999786
0.999792
0.999797
0.999802
0.999807
0.999812
0.999818
0.999881
0.999812
0.999786
0.99978
0.99978
0.999784
0.999789
0.999794
0.999798
0.999803
0.999808
0.999813
0.999819
0.999751
0.999748
0.999749
0.999752
0.999756
0.99976
0.999765
0.999769
0.999774
0.999782
0.999788
0.999794
0.9998
0.999742
0.999745
0.999748
0.999752
0.999756
0.99976
0.999765
0.99977
0.999775
0.999782
0.999788
0.999794
0.999801
0.999738
0.999742
0.999746
0.99975
0.999755
0.99976
0.999765
0.99977
0.999776
0.999782
0.999788
0.999794
0.999801
0.999734
0.999739
0.999744
0.999749
0.999754
0.999759
0.999764
0.99977
0.999776
0.999782
0.999788
0.999794
0.999801
0.999731
0.999737
0.999742
0.999747
0.999753
0.999759
0.999764
0.99977
0.999776
0.999782
0.999788
0.999795
0.999802
0.999727
0.999735
0.999741
0.999747
0.999753
0.999759
0.999765
0.999771
0.999777
0.999783
0.999789
0.999796
0.999803
0.999728
0.999735
0.999741
0.999747
0.999753
0.999759
0.999766
0.999772
0.999778
0.999784
0.999791
0.999797
0.999804
0.999729
0.999735
0.999741
0.999747
0.999753
0.99976
0.999767
0.999773
0.999779
0.999786
0.999792
0.999798
0.999805
0.999729
0.999735
0.99974
0.999747
0.999753
0.99976
0.999768
0.999774
0.999781
0.999787
0.999793
0.999799
0.999806
0.999725
0.999734
0.99974
0.999747
0.999754
0.999761
0.999768
0.999775
0.999782
0.999788
0.999794
0.9998
0.999807
0.999726
0.999734
0.99974
0.999747
0.999754
0.999762
0.999769
0.999777
0.999783
0.999789
0.999795
0.999801
0.999808
0.999728
0.999734
0.99974
0.999747
0.999754
0.999763
0.999771
0.999778
0.999785
0.999791
0.999796
0.999803
0.999809
0.99973
0.999734
0.999739
0.999747
0.999755
0.999764
0.999772
0.99978
0.999786
0.999792
0.999798
0.999804
0.99981
0.999727
0.999729
0.999737
0.999747
0.999756
0.999766
0.999774
0.999782
0.999788
0.999794
0.9998
0.999806
0.999812
0.999685
0.999715
0.999733
0.999747
0.999758
0.999768
0.999777
0.999784
0.999791
0.999796
0.999802
0.999807
0.999813
0.999666
0.99971
0.999734
0.99975
0.999761
0.999771
0.99978
0.999787
0.999793
0.999798
0.999804
0.999809
0.999815
0.999676
0.999721
0.999743
0.999757
0.999766
0.999775
0.999782
0.999789
0.999795
0.9998
0.999805
0.999811
0.999816
0.999724
0.99975
0.99976
0.999766
0.999772
0.999778
0.999785
0.999791
0.999797
0.999802
0.999807
0.999812
0.999818
0.999864
0.999806
0.999782
0.999777
0.999778
0.999782
0.999787
0.999793
0.999798
0.999803
0.999808
0.999814
0.999819
0.999885
0.99981
0.99979
0.999782
0.999781
0.999785
0.99979
0.999795
0.9998
0.999805
0.99981
0.999815
0.999821
0.999748
0.999745
0.999747
0.999751
0.999755
0.99976
0.999764
0.999768
0.999774
0.999781
0.999787
0.999793
0.999799
0.999739
0.999742
0.999746
0.99975
0.999755
0.99976
0.999764
0.999769
0.999775
0.999781
0.999788
0.999794
0.999801
0.999734
0.999739
0.999744
0.999749
0.999754
0.999759
0.999764
0.99977
0.999775
0.999782
0.999788
0.999794
0.999801
0.999731
0.999737
0.999742
0.999747
0.999753
0.999758
0.999764
0.99977
0.999776
0.999782
0.999788
0.999795
0.999802
0.999728
0.999734
0.99974
0.999746
0.999752
0.999758
0.999764
0.999771
0.999777
0.999783
0.999789
0.999796
0.999802
0.999724
0.999733
0.999739
0.999745
0.999752
0.999758
0.999765
0.999772
0.999778
0.999784
0.99979
0.999797
0.999804
0.999725
0.999733
0.999739
0.999745
0.999752
0.999759
0.999766
0.999773
0.999779
0.999785
0.999792
0.999798
0.999805
0.999726
0.999733
0.999739
0.999745
0.999752
0.99976
0.999767
0.999774
0.999781
0.999787
0.999793
0.9998
0.999806
0.999726
0.999733
0.999739
0.999746
0.999752
0.99976
0.999768
0.999775
0.999782
0.999788
0.999794
0.999801
0.999808
0.999723
0.999732
0.999738
0.999745
0.999753
0.999761
0.999769
0.999776
0.999783
0.999789
0.999795
0.999802
0.999808
0.999723
0.999732
0.999738
0.999745
0.999753
0.999761
0.99977
0.999777
0.999784
0.99979
0.999796
0.999803
0.999809
0.999725
0.999732
0.999738
0.999745
0.999753
0.999762
0.999771
0.999779
0.999786
0.999792
0.999798
0.999804
0.99981
0.999727
0.999731
0.999737
0.999745
0.999754
0.999763
0.999772
0.99978
0.999787
0.999793
0.999799
0.999805
0.999812
0.999723
0.999727
0.999735
0.999745
0.999755
0.999765
0.999774
0.999782
0.999789
0.999795
0.999801
0.999807
0.999813
0.999682
0.999712
0.999731
0.999745
0.999757
0.999767
0.999777
0.999785
0.999791
0.999797
0.999803
0.999809
0.999815
0.999663
0.999707
0.999732
0.999748
0.99976
0.99977
0.999779
0.999787
0.999794
0.999799
0.999805
0.99981
0.999816
0.999674
0.999719
0.999741
0.999755
0.999765
0.999774
0.999782
0.99979
0.999796
0.999801
0.999807
0.999812
0.999818
0.999721
0.99975
0.999759
0.999766
0.999772
0.999779
0.999786
0.999792
0.999798
0.999803
0.999808
0.999814
0.999819
0.999862
0.999801
0.999785
0.999778
0.999778
0.999783
0.999789
0.999795
0.9998
0.999805
0.99981
0.999815
0.999821
0.999858
0.999821
0.999793
0.999783
0.999782
0.999786
0.999791
0.999797
0.999802
0.999807
0.999812
0.999817
0.999823
0.999745
0.999743
0.999746
0.99975
0.999755
0.99976
0.999764
0.999769
0.999774
0.999782
0.999787
0.999793
0.999799
0.999736
0.99974
0.999745
0.999749
0.999754
0.999759
0.999764
0.99977
0.999775
0.999782
0.999788
0.999794
0.999801
0.999731
0.999737
0.999742
0.999748
0.999753
0.999759
0.999764
0.99977
0.999776
0.999782
0.999788
0.999795
0.999801
0.999726
0.999734
0.99974
0.999746
0.999752
0.999758
0.999764
0.99977
0.999776
0.999783
0.999789
0.999795
0.999802
0.999723
0.999732
0.999738
0.999745
0.999751
0.999758
0.999765
0.999771
0.999777
0.999784
0.99979
0.999796
0.999803
0.999721
0.99973
0.999737
0.999744
0.999751
0.999758
0.999765
0.999772
0.999779
0.999785
0.999791
0.999798
0.999805
0.999722
0.999731
0.999738
0.999744
0.999751
0.999759
0.999767
0.999774
0.99978
0.999787
0.999793
0.9998
0.999807
0.999723
0.999732
0.999738
0.999745
0.999752
0.99976
0.999768
0.999775
0.999782
0.999788
0.999795
0.999801
0.999808
0.999724
0.999732
0.999738
0.999745
0.999752
0.99976
0.999769
0.999776
0.999783
0.99979
0.999796
0.999803
0.999809
0.999722
0.999731
0.999738
0.999745
0.999752
0.999761
0.999769
0.999777
0.999784
0.999791
0.999797
0.999804
0.99981
0.999723
0.999731
0.999738
0.999745
0.999753
0.999761
0.99977
0.999779
0.999786
0.999792
0.999798
0.999805
0.999811
0.999725
0.999732
0.999738
0.999745
0.999753
0.999762
0.999771
0.99978
0.999787
0.999793
0.9998
0.999806
0.999812
0.999727
0.999732
0.999737
0.999745
0.999754
0.999763
0.999773
0.999782
0.999789
0.999795
0.999801
0.999807
0.999814
0.999724
0.999728
0.999735
0.999745
0.999755
0.999765
0.999775
0.999783
0.999791
0.999797
0.999803
0.999809
0.999815
0.999686
0.999713
0.999731
0.999745
0.999756
0.999767
0.999777
0.999786
0.999793
0.999799
0.999804
0.99981
0.999817
0.999669
0.999709
0.999732
0.999748
0.99976
0.99977
0.99978
0.999788
0.999795
0.999801
0.999806
0.999812
0.999818
0.999678
0.99972
0.999742
0.999756
0.999765
0.999775
0.999783
0.999791
0.999797
0.999803
0.999808
0.999814
0.99982
0.999723
0.999752
0.999763
0.999767
0.999772
0.999779
0.999787
0.999794
0.999799
0.999805
0.99981
0.999816
0.999822
0.999861
0.999818
0.999788
0.99978
0.99978
0.999784
0.99979
0.999796
0.999802
0.999807
0.999812
0.999818
0.999823
0.999937
0.999829
0.999796
0.999785
0.999784
0.999788
0.999793
0.999799
0.999804
0.999809
0.999814
0.999819
0.999825
0.999744
0.999743
0.999746
0.99975
0.999755
0.999761
0.999765
0.999769
0.999774
0.999782
0.999787
0.999793
0.999799
0.999736
0.99974
0.999744
0.999749
0.999754
0.99976
0.999765
0.99977
0.999776
0.999782
0.999788
0.999794
0.999801
0.99973
0.999736
0.999741
0.999747
0.999753
0.999759
0.999764
0.99977
0.999776
0.999783
0.999789
0.999795
0.999802
0.999726
0.999733
0.999739
0.999745
0.999751
0.999758
0.999765
0.999771
0.999777
0.999783
0.99979
0.999796
0.999803
0.999723
0.999731
0.999738
0.999744
0.999751
0.999758
0.999765
0.999772
0.999778
0.999785
0.999791
0.999798
0.999804
0.999722
0.99973
0.999737
0.999744
0.999751
0.999758
0.999766
0.999773
0.99978
0.999786
0.999793
0.999799
0.999806
0.999724
0.999731
0.999737
0.999744
0.999751
0.999759
0.999767
0.999775
0.999782
0.999788
0.999795
0.999801
0.999808
0.999727
0.999733
0.999738
0.999745
0.999752
0.99976
0.999769
0.999777
0.999784
0.99979
0.999796
0.999803
0.99981
0.999728
0.999734
0.999739
0.999745
0.999752
0.999761
0.99977
0.999778
0.999785
0.999791
0.999798
0.999805
0.999812
0.999727
0.999733
0.999738
0.999745
0.999752
0.999761
0.99977
0.999779
0.999786
0.999793
0.999799
0.999806
0.999813
0.999728
0.999733
0.999738
0.999745
0.999753
0.999762
0.999771
0.99978
0.999787
0.999794
0.9998
0.999807
0.999814
0.99973
0.999734
0.999739
0.999745
0.999753
0.999763
0.999773
0.999781
0.999789
0.999795
0.999802
0.999808
0.999815
0.999732
0.999734
0.999738
0.999746
0.999754
0.999764
0.999774
0.999783
0.99979
0.999797
0.999803
0.99981
0.999816
0.99973
0.99973
0.999736
0.999746
0.999755
0.999766
0.999776
0.999785
0.999792
0.999799
0.999805
0.999811
0.999818
0.999692
0.999717
0.999733
0.999746
0.999757
0.999768
0.999778
0.999787
0.999794
0.999801
0.999807
0.999813
0.999819
0.999676
0.999712
0.999734
0.999749
0.99976
0.999771
0.999781
0.99979
0.999797
0.999803
0.999808
0.999814
0.999821
0.999686
0.999724
0.999744
0.999756
0.999766
0.999776
0.999784
0.999792
0.999799
0.999805
0.99981
0.999816
0.999822
0.999729
0.999754
0.999761
0.999768
0.999774
0.999781
0.999788
0.999795
0.999801
0.999807
0.999812
0.999818
0.999824
0.999859
0.9998
0.999787
0.999781
0.999781
0.999786
0.999792
0.999798
0.999804
0.999809
0.999814
0.99982
0.999826
0.999844
0.999822
0.999796
0.999787
0.999786
0.99979
0.999795
0.999801
0.999806
0.999811
0.999816
0.999821
0.999827
0.999744
0.999742
0.999745
0.99975
0.999756
0.999761
0.999765
0.999769
0.999774
0.999782
0.999788
0.999793
0.999799
0.999735
0.999739
0.999743
0.999748
0.999754
0.99976
0.999765
0.99977
0.999776
0.999782
0.999788
0.999795
0.999801
0.99973
0.999735
0.999741
0.999746
0.999752
0.999759
0.999765
0.999771
0.999777
0.999783
0.999789
0.999796
0.999802
0.999726
0.999733
0.999738
0.999745
0.999751
0.999758
0.999765
0.999772
0.999778
0.999784
0.99979
0.999797
0.999804
0.999724
0.999731
0.999737
0.999744
0.99975
0.999758
0.999765
0.999773
0.999779
0.999786
0.999792
0.999799
0.999805
0.999722
0.99973
0.999737
0.999743
0.99975
0.999759
0.999767
0.999774
0.999781
0.999787
0.999794
0.999801
0.999807
0.999726
0.999732
0.999737
0.999744
0.999751
0.99976
0.999768
0.999776
0.999783
0.99979
0.999796
0.999803
0.99981
0.99973
0.999734
0.999738
0.999745
0.999752
0.99976
0.999769
0.999778
0.999785
0.999791
0.999798
0.999805
0.999812
0.999734
0.999735
0.999739
0.999745
0.999752
0.999761
0.99977
0.999779
0.999786
0.999793
0.9998
0.999806
0.999813
0.99973
0.999735
0.999739
0.999745
0.999753
0.999762
0.999771
0.99978
0.999788
0.999794
0.999801
0.999808
0.999815
0.999732
0.999735
0.999739
0.999746
0.999753
0.999763
0.999772
0.999781
0.999789
0.999796
0.999802
0.999809
0.999816
0.999734
0.999736
0.99974
0.999746
0.999754
0.999764
0.999773
0.999783
0.99979
0.999797
0.999804
0.99981
0.999817
0.999737
0.999736
0.999739
0.999746
0.999755
0.999765
0.999775
0.999784
0.999792
0.999799
0.999805
0.999812
0.999818
0.999734
0.999733
0.999738
0.999746
0.999756
0.999766
0.999777
0.999786
0.999794
0.9998
0.999807
0.999813
0.99982
0.999697
0.99972
0.999735
0.999747
0.999758
0.999769
0.999779
0.999788
0.999796
0.999802
0.999808
0.999815
0.999821
0.999681
0.999716
0.999736
0.99975
0.999761
0.999772
0.999782
0.999791
0.999798
0.999804
0.99981
0.999817
0.999823
0.999692
0.999727
0.999746
0.999758
0.999767
0.999777
0.999786
0.999794
0.9998
0.999806
0.999812
0.999818
0.999824
0.999734
0.999756
0.999765
0.999769
0.999775
0.999782
0.99979
0.999797
0.999803
0.999809
0.999814
0.99982
0.999826
0.999858
0.999813
0.999788
0.999783
0.999783
0.999788
0.999794
0.9998
0.999805
0.999811
0.999816
0.999822
0.999828
0.999901
0.999818
0.999799
0.999791
0.999789
0.999792
0.999797
0.999802
0.999808
0.999812
0.999818
0.999823
0.999829
0.999743
0.999741
0.999745
0.99975
0.999756
0.999761
0.999765
0.999769
0.999774
0.999782
0.999788
0.999793
0.999799
0.999734
0.999738
0.999742
0.999748
0.999754
0.99976
0.999765
0.999771
0.999776
0.999783
0.999789
0.999795
0.999801
0.999729
0.999734
0.99974
0.999746
0.999752
0.999758
0.999765
0.999771
0.999777
0.999783
0.99979
0.999796
0.999803
0.999725
0.999731
0.999737
0.999744
0.999751
0.999758
0.999765
0.999772
0.999778
0.999785
0.999791
0.999798
0.999804
0.999723
0.99973
0.999736
0.999743
0.99975
0.999758
0.999766
0.999773
0.99978
0.999786
0.999793
0.999799
0.999806
0.999721
0.999729
0.999736
0.999743
0.99975
0.999758
0.999767
0.999775
0.999782
0.999788
0.999795
0.999802
0.999809
0.999726
0.999732
0.999737
0.999743
0.999751
0.99976
0.999768
0.999777
0.999784
0.999791
0.999797
0.999804
0.999811
0.999732
0.999734
0.999738
0.999744
0.999752
0.999761
0.99977
0.999778
0.999786
0.999792
0.999799
0.999806
0.999813
0.999735
0.999736
0.999739
0.999745
0.999752
0.999761
0.999771
0.99978
0.999787
0.999794
0.999801
0.999808
0.999815
0.999732
0.999736
0.999739
0.999745
0.999753
0.999762
0.999772
0.999781
0.999789
0.999795
0.999802
0.999809
0.999816
0.999733
0.999737
0.99974
0.999746
0.999753
0.999763
0.999773
0.999782
0.99979
0.999797
0.999804
0.999811
0.999818
0.999736
0.999737
0.99974
0.999746
0.999754
0.999764
0.999774
0.999784
0.999791
0.999798
0.999805
0.999812
0.999819
0.999739
0.999737
0.99974
0.999747
0.999755
0.999765