# vtk DataFile Version 2.0
I need something to put here
ASCII

DATASET STRUCTURED_GRID
DIMENSIONS 14 21 40
POINTS 11760 float
0.000000 0.000000 0.000000
0.025000 0.000000 0.000000
0.050000 0.000000 0.000000
0.075000 0.000000 0.000000
0.100000 0.000000 0.000000
0.125000 0.000000 0.000000
0.150000 0.000000 0.000000
0.175000 0.000000 0.000000
0.200000 0.000000 0.000000
0.225000 0.000000 0.000000
0.250000 0.000000 0.000000
0.275000 0.000000 0.000000
0.300000 0.000000 0.000000
0.325000 0.000000 0.000000
0.000000 0.025000 0.000000
0.025000 0.025000 0.000000
0.050000 0.025000 0.000000
0.075000 0.025000 0.000000
0.100000 0.025000 0.000000
0.125000 0.025000 0.000000
0.150000 0.025000 0.000000
0.175000 0.025000 0.000000
0.200000 0.025000 0.000000
0.225000 0.025000 0.000000
0.250000 0.025000 0.000000
0.275000 0.025000 0.000000
0.300000 0.025000 0.000000
0.325000 0.025000 0.000000
0.000000 0.050000 0.000000
0.025000 0.050000 0.000000
0.050000 0.050000 0.000000
0.075000 0.050000 0.000000
0.100000 0.050000 0.000000
0.125000 0.050000 0.000000
0.150000 0.050000 0.000000
0.175000 0.050000 0.000000
0.200000 0.050000 0.000000
0.225000 0.050000 0.000000
0.250000 0.050000 0.000000
0.275000 0.050000 0.000000
0.300000 0.050000 0.000000
0.325000 0.050000 0.000000
0.000000 0.075000 0.000000
0.025000 0.075000 0.000000
0.050000 0.075000 0.000000
0.075000 0.075000 0.000000
0.100000 0.075000 0.000000
0.125000 0.075000 0.000000
0.150000 0.075000 0.000000
0.175000 0.075000 0.000000
0.200000 0.075000 0.000000
0.225000 0.075000 0.000000
0.250000 0.075000 0.000000
0.275000 0.075000 0.000000
0.300000 0.075000 0.000000
0.325000 0.075000 0.000000
0.000000 0.100000 0.000000
0.025000 0.100000 0.000000
0.050000 0.100000 0.000000
0.075000 0.100000 0.000000
0.100000 0.100000 0.000000
0.125000 0.100000 0.000000
0.150000 0.100000 0.000000
0.175000 0.100000 0.000000
0.200000 0.100000 0.000000
0.225000 0.100000 0.000000
0.250000 0.100000 0.000000
0.275000 0.100000 0.000000
0.300000 0.100000 0.000000
0.325000 0.100000 0.000000
0.000000 0.125000 0.000000
0.025000 0.125000 0.000000
0.050000 0.125000 0.000000
0.075000 0.125000 0.000000
0.100000 0.125000 0.000000
0.125000 0.125000 0.000000
0.150000 0.125000 0.000000
0.175000 0.125000 0.000000
0.200000 0.125000 0.000000
0.225000 0.125000 0.000000
0.250000 0.125000 0.000000
0.275000 0.125000 0.000000
0.300000 0.125000 0.000000
0.325000 0.125000 0.000000
0.000000 0.150000 0.000000
0.025000 0.150000 0.000000
0.050000 0.150000 0.000000
0.075000 0.150000 0.000000
0.100000 0.150000 0.000000
0.125000 0.150000 0.000000
0.150000 0.150000 0.000000
0.175000 0.150000 0.000000
0.200000 0.150000 0.000000
0.225000 0.150000 0.000000
0.250000 0.150000 0.000000
0.275000 0.150000 0.000000
0.300000 0.150000 0.000000
0.325000 0.150000 0.000000
0.000000 0.175000 0.000000
0.025000 0.175000 0.000000
0.050000 0.175000 0.000000
0.075000 0.175000 0.000000
0.100000 0.175000 0.000000
0.125000 0.175000 0.000000
0.150000 0.175000 0.000000
0.175000 0.175000 0.000000
0.200000 0.175000 0.000000
0.225000 0.175000 0.000000
0.250000 0.175000 0.000000
0.275000 0.175000 0.000000
0.300000 0.175000 0.000000
0.325000 0.175000 0.000000
0.000000 0.200000 0.000000
0.025000 0.200000 0.000000
0.050000 0.200000 0.000000
0.075000 0.200000 0.000000
0.100000 0.200000 0.000000
0.125000 0.200000 0.000000
0.150000 0.200000 0.000000
0.175000 0.200000 0.000000
0.200000 0.200000 0.000000
0.225000 0.200000 0.000000
0.250000 0.200000 0.000000
0.275000 0.200000 0.000000
0.300000 0.200000 0.000000
0.325000 0.200000 0.000000
0.000000 0.225000 0.000000
0.025000 0.225000 0.000000
0.050000 0.225000 0.000000
0.075000 0.225000 0.000000
0.100000 0.225000 0.000000
0.125000 0.225000 0.000000
0.150000 0.225000 0.000000
0.175000 0.225000 0.000000
0.200000 0.225000 0.000000
0.225000 0.225000 0.000000
0.250000 0.225000 0.000000
0.275000 0.225000 0.000000
0.300000 0.225000 0.000000
0.325000 0.225000 0.000000
0.000000 0.250000 0.000000
0.025000 0.250000 0.000000
0.050000 0.250000 0.000000
0.075000 0.250000 0.000000
0.100000 0.250000 0.000000
0.125000 0.250000 0.000000
0.150000 0.250000 0.000000
0.175000 0.250000 0.000000
0.200000 0.250000 0.000000
0.225000 0.250000 0.000000
0.250000 0.250000 0.000000
0.275000 0.250000 0.000000
0.300000 0.250000 0.000000
0.325000 0.250000 0.000000
0.000000 0.275000 0.000000
0.025000 0.275000 0.000000
0.050000 0.275000 0.000000
0.075000 0.275000 0.000000
0.100000 0.275000 0.000000
0.125000 0.275000 0.000000
0.150000 0.275000 0.000000
0.175000 0.275000 0.000000
0.200000 0.275000 0.000000
0.225000 0.275000 0.000000
0.250000 0.275000 0.000000
0.275000 0.275000 0.000000
0.300000 0.275000 0.000000
0.325000 0.275000 0.000000
0.000000 0.300000 0.000000
0.025000 0.300000 0.000000
0.050000 0.300000 0.000000
0.075000 0.300000 0.000000
0.100000 0.300000 0.000000
0.125000 0.300000 0.000000
0.150000 0.300000 0.000000
0.175000 0.300000 0.000000
0.200000 0.300000 0.000000
0.225000 0.300000 0.000000
0.250000 0.300000 0.000000
0.275000 0.300000 0.000000
0.300000 0.300000 0.000000
0.325000 0.300000 0.000000
0.000000 0.325000 0.000000
0.025000 0.325000 0.000000
0.050000 0.325000 0.000000
0.075000 0.325000 0.000000
0.100000 0.325000 0.000000
0.125000 0.325000 0.000000
0.150000 0.325000 0.000000
0.175000 0.325000 0.000000
0.200000 0.325000 0.000000
0.225000 0.325000 0.000000
0.250000 0.325000 0.000000
0.275000 0.325000 0.000000
0.300000 0.325000 0.000000
0.325000 0.325000 0.000000
0.000000 0.350000 0.000000
0.025000 0.350000 0.000000
0.050000 0.350000 0.000000
0.075000 0.350000 0.000000
0.100000 0.350000 0.000000
0.125000 0.350000 0.000000
0.150000 0.350000 0.000000
0.175000 0.350000 0.000000
0.200000 0.350000 0.000000
0.225000 0.350000 0.000000
0.250000 0.350000 0.000000
0.275000 0.350000 0.000000
0.300000 0.350000 0.000000
0.325000 0.350000 0.000000
0.000000 0.375000 0.000000
0.025000 0.375000 0.000000
0.050000 0.375000 0.000000
0.075000 0.375000 0.000000
0.100000 0.375000 0.000000
0.125000 0.375000 0.000000
0.150000 0.375000 0.000000
0.175000 0.375000 0.000000
0.200000 0.375000 0.000000
0.225000 0.375000 0.000000
0.250000 0.375000 0.000000
0.275000 0.375000 0.000000
0.300000 0.375000 0.000000
0.325000 0.375000 0.000000
0.000000 0.400000 0.000000
0.025000 0.400000 0.000000
0.050000 0.400000 0.000000
0.075000 0.400000 0.000000
0.100000 0.400000 0.000000
0.125000 0.400000 0.000000
0.150000 0.400000 0.000000
0.175000 0.400000 0.000000
0.200000 0.400000 0.000000
0.225000 0.400000 0.000000
0.250000 0.400000 0.000000
0.275000 0.400000 0.000000
0.300000 0.400000 0.000000
0.325000 0.400000 0.000000
0.000000 0.425000 0.000000
0.025000 0.425000 0.000000
0.050000 0.425000 0.000000
0.075000 0.425000 0.000000
0.100000 0.425000 0.000000
0.125000 0.425000 0.000000
0.150000 0.425000 0.000000
0.175000 0.425000 0.000000
0.200000 0.425000 0.000000
0.225000 0.425000 0.000000
0.250000 0.425000 0.000000
0.275000 0.425000 0.000000
0.300000 0.425000 0.000000
0.325000 0.425000 0.000000
0.000000 0.450000 0.000000
0.025000 0.450000 0.000000
0.050000 0.450000 0.000000
0.075000 0.450000 0.000000
0.100000 0.450000 0.000000
0.125000 0.450000 0.000000
0.150000 0.450000 0.000000
0.175000 0.450000 0.000000
0.200000 0.450000 0.000000
0.225000 0.450000 0.000000
0.250000 0.450000 0.000000
0.275000 0.450000 0.000000
0.300000 0.450000 0.000000
0.325000 0.450000 0.000000
0.000000 0.475000 0.000000
0.025000 0.475000 0.000000
0.050000 0.475000 0.000000
0.075000 0.475000 0.000000
0.100000 0.475000 0.000000
0.125000 0.475000 0.000000
0.150000 0.475000 0.000000
0.175000 0.475000 0.000000
0.200000 0.475000 0.000000
0.225000 0.475000 0.000000
0.250000 0.475000 0.000000
0.275000 0.475000 0.000000
0.300000 0.475000 0.000000
0.325000 0.475000 0.000000
0.000000 0.500000 0.000000
0.025000 0.500000 0.000000
0.050000 0.500000 0.000000
0.075000 0.500000 0.000000
0.100000 0.500000 0.000000
0.125000 0.500000 0.000000
0.150000 0.500000 0.000000
0.175000 0.500000 0.000000
0.200000 0.500000 0.000000
0.225000 0.500000 0.000000
0.250000 0.500000 0.000000
0.275000 0.500000 0.000000
0.300000 0.500000 0.000000
0.325000 0.500000 0.000000
0.000000 0.000000 0.025000
0.025000 0.000000 0.025000
0.050000 0.000000 0.025000
0.075000 0.000000 0.025000
0.100000 0.000000 0.025000
0.125000 0.000000 0.025000
0.150000 0.000000 0.025000
0.175000 0.000000 0.025000
0.200000 0.000000 0.025000
0.225000 0.000000 0.025000
0.250000 0.000000 0.025000
0.275000 0.000000 0.025000
0.300000 0.000000 0.025000
0.325000 0.000000 0.025000
0.000000 0.025000 0.025000
0.025000 0.025000 0.025000
0.050000 0.025000 0.025000
0.075000 0.025000 0.025000
0.100000 0.025000 0.025000
0.125000 0.025000 0.025000
0.150000 0.025000 0.025000
0.175000 0.025000 0.025000
0.200000 0.025000 0.025000
0.225000 0.025000 0.025000
0.250000 0.025000 0.025000
0.275000 0.025000 0.025000
0.300000 0.025000 0.025000
0.325000 0.025000 0.025000
0.000000 0.050000 0.025000
0.025000 0.050000 0.025000
0.050000 0.050000 0.025000
0.075000 0.050000 0.025000
0.100000 0.050000 0.025000
0.125000 0.050000 0.025000
0.150000 0.050000 0.025000
0.175000 0.050000 0.025000
0.200000 0.050000 0.025000
0.225000 0.050000 0.025000
0.250000 0.050000 0.025000
0.275000 0.050000 0.025000
0.300000 0.050000 0.025000
0.325000 0.050000 0.025000
0.000000 0.075000 0.025000
0.025000 0.075000 0.025000
0.050000 0.075000 0.025000
0.075000 0.075000 0.025000
0.100000 0.075000 0.025000
0.125000 0.075000 0.025000
0.150000 0.075000 0.025000
0.175000 0.075000 0.025000
0.200000 0.075000 0.025000
0.225000 0.075000 0.025000
0.250000 0.075000 0.025000
0.275000 0.075000 0.025000
0.300000 0.075000 0.025000
0.325000 0.075000 0.025000
0.000000 0.100000 0.025000
0.025000 0.100000 0.025000
0.050000 0.100000 0.025000
0.075000 0.100000 0.025000
0.100000 0.100000 0.025000
0.125000 0.100000 0.025000
0.150000 0.100000 0.025000
0.175000 0.100000 0.025000
0.200000 0.100000 0.025000
0.225000 0.100000 0.025000
0.250000 0.100000 0.025000
0.275000 0.100000 0.025000
0.300000 0.100000 0.025000
0.325000 0.100000 0.025000
0.000000 0.125000 0.025000
[...]
CELL_DATA 10140
SCALARS density float 1
LOOKUP_TABLE default
0.999616
0.99959
0.999581
0.999582
0.999588
0.999598
0.999611
0.999624
0.99964
0.999658
0.999676
0.999692
0.999708
0.999582
0.999562
0.999556
0.999558
0.999566
0.999578
0.999592
0.999607
0.999625
0.999644
0.999662
0.99968
0.999698
0.999559
0.999541
0.999537
0.999542
0.999552
0.999565
0.99958
0.999597
0.999614
0.999635
0.999654
0.999672
0.99969
0.999543
0.999525
0.999523
0.99953
0.999541
0.999557
0.999573
0.99959
0.999608
0.99963
0.999649
0.999667
0.999685
0.99953
0.999513
0.999512
0.999521
0.999534
0.999551
0.999568
0.999586
0.999604
0.999626
0.999646
0.999664
0.999682
0.99952
0.999504
0.999505
0.999515
0.99953
0.999548
0.999566
0.999584
0.999604
0.999625
0.999644
0.999662
0.99968
0.999514
0.999498
0.9995
0.999511
0.999528
0.999547
0.999565
0.999583
0.999603
0.999624
0.999644
0.999662
0.999679
0.99951
0.999493
0.999496
0.999509
0.999526
0.999546
0.999564
0.999582
0.999602
0.999624
0.999644
0.999662
0.999679
0.999505
0.999489
0.999492
0.999506
0.999525
0.999545
0.999564
0.999583
0.999602
0.999625
0.999645
0.999662
0.999679
0.9995
0.999485
0.999488
0.999502
0.999523
0.999545
0.999566
0.999587
0.999607
0.999628
0.999646
0.999664
0.99968
0.999497
0.999482
0.999486
0.999501
0.999522
0.999545
0.999568
0.999589
0.999609
0.99963
0.999648
0.999666
0.999683
0.999497
0.999481
0.999483
0.999499
0.999521
0.999546
0.999569
0.999591
0.999611
0.999632
0.999651
0.999669
0.999685
0.999497
0.999478
0.999481
0.999498
0.999521
0.999547
0.99957
0.999592
0.999614
0.999635
0.999654
0.999671
0.999688
0.999491
0.999473
0.999479
0.999498
0.999522
0.999549
0.999573
0.999596
0.999618
0.999638
0.999657
0.999675
0.999691
0.999465
0.999468
0.999483
0.999505
0.999531
0.999558
0.999583
0.999606
0.999627
0.999645
0.999663
0.999681
0.999698
0.999453
0.999469
0.999488
0.999512
0.999538
0.999565
0.99959
0.999613
0.999634
0.99965
0.999668
0.999686
0.999702
0.999461
0.999478
0.999494
0.999515
0.99954
0.999566
0.999591
0.999614
0.999635
0.999651
0.99967
0.999688
0.999704
0.999496
0.999495
0.999496
0.999511
0.999534
0.999561
0.999587
0.999612
0.999632
0.999649
0.999667
0.999686
0.999703
0.999581
0.999508
0.999488
0.999495
0.999515
0.999541
0.999568
0.999595
0.999618
0.999638
0.999658
0.999678
0.999697
0.99958
0.999507
0.99949
0.999498
0.999514
0.999536
0.999558
0.99958
0.999605
0.999631
0.999655
0.999675
0.999693
0.999582
0.999562
0.999556
0.999558
0.999566
0.999578
0.999592
0.999608
0.999625
0.999644
0.999663
0.99968
0.999698
0.999551
0.999546
0.999545
0.999549
0.999559
0.999572
0.999587
0.999603
0.99962
0.999639
0.999658
0.999675
0.999693
0.999529
0.999529
0.999532
0.999539
0.999551
0.999565
0.999581
0.999598
0.999616
0.999635
0.999653
0.999671
0.999689
0.999512
0.999515
0.99952
0.99953
0.999543
0.999559
0.999577
0.999594
0.999612
0.999631
0.99965
0.999667
0.999685
0.999498
0.999504
0.999511
0.999523
0.999538
0.999555
0.999573
0.999592
0.99961
0.999629
0.999647
0.999664
0.999682
0.999487
0.999494
0.999504
0.999517
0.999534
0.999553
0.999572
0.99959
0.999609
0.999628
0.999646
0.999663
0.99968
0.999482
0.999488
0.999498
0.999513
0.999531
0.999551
0.999571
0.99959
0.999609
0.999628
0.999645
0.999662
0.999679
0.999477
0.999484
0.999495
0.999511
0.999529
0.99955
0.999571
0.99959
0.999609
0.999628
0.999646
0.999662
0.999678
0.999473
0.99948
0.999491
0.999508
0.999528
0.99955
0.999571
0.999591
0.999611
0.999629
0.999647
0.999663
0.999679
0.999468
0.999476
0.999488
0.999506
0.999527
0.999551
0.999573
0.999594
0.999613
0.999632
0.999649
0.999665
0.99968
0.999466
0.999474
0.999486
0.999505
0.999527
0.999551
0.999575
0.999596
0.999616
0.999635
0.999651
0.999667
0.999683
0.999466
0.999472
0.999485
0.999504
0.999527
0.999552
0.999576
0.999599
0.999619
0.999637
0.999654
0.99967
0.999685
0.999466
0.999471
0.999483
0.999503
0.999527
0.999554
0.999579
0.999602
0.999622
0.999641
0.999657
0.999673
0.999688
0.999464
0.999466
0.999481
0.999503
0.999529
0.999556
0.999582
0.999605
0.999626
0.999644
0.999661
0.999676
0.999691
0.999428
0.999456
0.99948
0.999506
0.999533
0.999561
0.999588
0.999611
0.999632
0.999649
0.999666
0.999681
0.999695
0.999413
0.999452
0.999482
0.99951
0.999538
0.999566
0.999592
0.999616
0.999636
0.999653
0.999669
0.999684
0.999698
0.99942
0.999461
0.999488
0.999514
0.99954
0.999568
0.999594
0.999618
0.999638
0.999655
0.999671
0.999686
0.9997
0.999458
0.999483
0.999498
0.999517
0.99954
0.999567
0.999593
0.999616
0.999637
0.999654
0.999671
0.999686
0.9997
0.999575
0.999519
0.999507
0.999517
0.999537
0.999562
0.999587
0.999611
0.999632
0.999651
0.999668
0.999684
0.999699
0.999587
0.999524
0.999512
0.99952
0.999539
0.999563
0.999587
0.99961
0.999631
0.99965
0.999668
0.999683
0.999698
0.999559
0.999542
0.999537
0.999542
0.999552
0.999565
0.99958
0.999597
0.999615
0.999635
0.999654
0.999672
0.99969
0.999529
0.999529
0.999532
0.999539
0.999551
0.999565
0.999581
0.999598
0.999616
0.999635
0.999653
0.999671
0.999689
0.999508
0.999516
0.999523
0.999534
0.999547
0.999563
0.99958
0.999598
0.999615
0.999633
0.999651
0.999668
0.999686
0.999491
0.999503
0.999514
0.999527
0.999543
0.99956
0.999578
0.999597
0.999614
0.999632
0.999649
0.999666
0.999683
0.999478
0.999493
0.999506
0.999522
0.999539
0.999558
0.999577
0.999596
0.999614
0.999631
0.999648
0.999664
0.999681
0.999466
0.999484
0.999499
0.999517
0.999536
0.999556
0.999576
0.999595
0.999613
0.999631
0.999647
0.999663
0.999679
0.99946
0.999478
0.999494
0.999513
0.999533
0.999555
0.999576
0.999596
0.999614
0.999631
0.999647
0.999662
0.999678
0.999457
0.999474
0.999491
0.999511
0.999532
0.999555
0.999576
0.999597
0.999615
0.999632
0.999648
0.999663
0.999678
0.999453
0.999471
0.999488
0.999509
0.999531
0.999555
0.999578
0.999599
0.999617
0.999634
0.999649
0.999664
0.999679
0.999446
0.999466
0.999486
0.999508
0.999531
0.999556
0.99958
0.999601
0.99962
0.999637
0.999652
0.999666
0.99968
0.999444
0.999464
0.999484
0.999507
0.999532
0.999557
0.999582
0.999604
0.999623
0.99964
0.999655
0.999669
0.999682
0.999444
0.999463
0.999483
0.999507
0.999532
0.999559
0.999584
0.999607
0.999627
0.999643
0.999658
0.999672
0.999685
0.999445
0.999461
0.999481
0.999506
0.999533
0.999561
0.999587
0.99961
0.99963
0.999646
0.999661
0.999675
0.999688
0.999442
0.999457
0.999479
0.999506
0.999534
0.999563
0.99959
0.999614
0.999634
0.99965
0.999665
0.999678
0.999691
0.999402
0.999443
0.999476
0.999507
0.999537
0.999567
0.999594
0.999618
0.999638
0.999654
0.999668
0.999681
0.999694
0.999384
0.999439
0.999477
0.99951
0.999541
0.99957
0.999598
0.999622
0.999642
0.999658
0.999672
0.999684
0.999696
0.999393
0.999448
0.999484
0.999515
0.999544
0.999573
0.9996
0.999624
0.999644
0.99966
0.999674
0.999686
0.999698
0.999435
0.999474
0.999498
0.999522
0.999548
0.999575
0.999602
0.999625
0.999645
0.999661
0.999675
0.999687
0.999699
0.999565
0.999519
0.999515
0.999528
0.99955
0.999576
0.999602
0.999625
0.999644
0.99966
0.999674
0.999687
0.999699
0.999577
0.999528
0.99952
0.999533
0.999554
0.999579
0.999604
0.999626
0.999645
0.999661
0.999675
0.999687
0.999699
0.999543
0.999525
0.999523
0.99953
0.999542
0.999557
0.999573
0.99959
0.999608
0.99963
0.999649
0.999667
0.999685
0.999512
0.999515
0.999521
0.99953
0.999543
0.999559
0.999577
0.999594
0.999612
0.999631
0.999649
0.999667
0.999685
0.999491
0.999503
0.999514
0.999527
0.999543
0.99956
0.999578
0.999596
0.999614
0.999632
0.999649
0.999666
0.999683
0.999475
0.999492
0.999507
0.999523
0.99954
0.999559
0.999579
0.999598
0.999615
0.999632
0.999648
0.999664
0.999681
0.999462
0.999482
0.9995
0.999519
0.999538
0.999559
0.999579
0.999598
0.999616
0.999632
0.999648
0.999663
0.999679
0.999449
0.999474
0.999494
0.999515
0.999536
0.999558
0.999579
0.999599
0.999617
0.999633
0.999648
0.999662
0.999677
0.999445
0.999469
0.99949
0.999512
0.999535
0.999558
0.99958
0.9996
0.999618
0.999634
0.999648
0.999662
0.999677
0.999442
0.999465
0.999487
0.999511
0.999534
0.999558
0.999581
0.999602
0.99962
0.999635
0.99965
0.999663
0.999677
0.999439
0.999462
0.999485
0.99951
0.999534
0.99956
0.999584
0.999605
0.999623
0.999638
0.999652
0.999665
0.999678
0.99943
0.999459
0.999483
0.999509
0.999535
0.999562
0.999586
0.999608
0.999626
0.999641
0.999655
0.999667
0.99968
0.999428
0.999457
0.999482
0.999509
0.999536
0.999564
0.999589
0.999611
0.99963
0.999645
0.999658
0.99967
0.999682
0.999428
0.999455
0.999481
0.999509
0.999537
0.999566
0.999592
0.999615
0.999634
0.999649
0.999662
0.999673
0.999685
0.99943
0.999454
0.99948
0.999509
0.999538
0.999568
0.999595
0.999618
0.999637
0.999652
0.999665
0.999676
0.999687
0.999426
0.999449
0.999478
0.999509
0.999539
0.99957
0.999598
0.999622
0.999641
0.999656
0.999668
0.999679
0.99969
0.999385
0.999435
0.999474
0.999509
0.999542
0.999573
0.999602
0.999626
0.999645
0.99966
0.999672
0.999682
0.999693
0.999367
0.99943
0.999474
0.999512
0.999545
0.999577
0.999605
0.999629
0.999648
0.999663
0.999675
0.999685
0.999695
0.999377
0.99944
0.999482
0.999518
0.99955
0.999581
0.999609
0.999632
0.999651
0.999666
0.999677
0.999687
0.999697
0.999422
0.999468
0.999498
0.999526
0.999555
0.999584
0.999611
0.999635
0.999653
0.999668
0.999679
0.999689
0.999698
0.999551
0.999519
0.999518
0.999536
0.99956
0.999587
0.999614
0.999636
0.999655
0.999669
0.99968
0.99969
0.999699
0.999573
0.999524
0.999526
0.999541
0.999564
0.99959
0.999616
0.999638
0.999656
0.99967
0.999681
0.99969
0.999699
0.99953
0.999513
0.999512
0.999521
0.999534
0.999551
0.999568
0.999586
0.999604
0.999626
0.999646
0.999664
0.999682
0.999498
0.999503
0.999511
0.999523
0.999538
0.999555
0.999573
0.999592
0.99961
0.999629
0.999647
0.999664
0.999681
0.999477
0.999492
0.999506
0.999521
0.999539
0.999558
0.999577
0.999596
0.999614
0.999631
0.999647
0.999664
0.99968
0.999462
0.999482
0.9995
0.999519
0.999538
0.999559
0.999579
0.999598
0.999616
0.999632
0.999648
0.999663
0.999679
0.999449
0.999473
0.999494
0.999516
0.999537
0.999559
0.999581
0.9996
0.999618
0.999633
0.999648
0.999662
0.999677
0.999437
0.999465
0.999489
0.999513
0.999536
0.99956
0.999582
0.999602
0.99962
0.999635
0.999649
0.999662
0.999676
0.999433
0.999461
0.999486
0.999511
0.999536
0.999561
0.999584
0.999604
0.999622
0.999636
0.99965
0.999663
0.999676
0.999432
0.999459
0.999484
0.999511
0.999536
0.999562
0.999586
0.999607
0.999625
0.999639
0.999652
0.999664
0.999677
0.99943
0.999457
0.999483
0.999511
0.999537
0.999565
0.999589
0.999611
0.999628
0.999642
0.999655
0.999666
0.999678
0.999422
0.999454
0.999482
0.999511
0.999539
0.999567
0.999593
0.999615
0.999633
0.999646
0.999658
0.999669
0.99968
0.999419
0.999453
0.999482
0.999511
0.999541
0.99957
0.999596
0.999619
0.999637
0.99965
0.999662
0.999672
0.999683
0.99942
0.999452
0.999481
0.999512
0.999542
0.999572
0.9996
0.999623
0.999641
0.999655
0.999666
0.999676
0.999685
0.999421
0.99945
0.99948
0.999512
0.999544
0.999575
0.999603
0.999627
0.999645
0.999658
0.999669
0.999679
0.999688
0.999417
0.999446
0.999478
0.999512
0.999545
0.999578
0.999606
0.99963
0.999649
0.999662
0.999673
0.999682
0.99969
0.999378
0.999432
0.999474
0.999512
0.999547
0.999581
0.99961
0.999634
0.999653
0.999666
0.999676
0.999685
0.999693
0.99936
0.999427
0.999475
0.999515
0.999551
0.999585
0.999614
0.999638
0.999656
0.999669
0.999679
0.999687
0.999695
0.999371
0.999438
0.999484
0.999522
0.999557
0.999589
0.999618
0.999642
0.99966
0.999673
0.999682
0.99969
0.999697
0.999415
0.999466
0.9995
0.999532
0.999563
0.999594
0.999622
0.999645
0.999663
0.999675
0.999684
0.999692
0.999699
0.999542
0.999513
0.999523
0.999543
0.999569
0.999598
0.999625
0.999648
0.999665
0.999677
0.999686
0.999693
0.9997
0.999541
0.999532
0.999531
0.999549
0.999573
0.999601
0.999628
0.99965
0.999666
0.999678
0.999687
0.999694
0.9997
0.999519
0.999504
0.999505
0.999515
0.99953
0.999548
0.999566
0.999584
0.999603
0.999625
0.999644
0.999662
0.99968
0.999487
0.999494
0.999503
0.999517
0.999534
0.999553
0.999571
0.99959
0.999609
0.999628
0.999645
0.999662
0.999679
0.999465
0.999483
0.999499
0.999517
0.999535
0.999556
0.999576
0.999595
0.999613
0.99963
0.999646
0.999662
0.999678
0.999449
0.999473
0.999494
0.999515
0.999536
0.999558
0.999579
0.999599
0.999616
0.999632
0.999647
0.999662
0.999677
0.999436
0.999465
0.999489
0.999513
0.999536
0.99956
0.999582
0.999602
0.999619
0.999634
0.999648
0.999662
0.999676
0.999427
0.999459
0.999485
0.999511
0.999536
0.999561
0.999585
0.999605
0.999622
0.999637
0.99965
0.999662
0.999675
0.999426
0.999456
0.999483
0.999511
0.999537
0.999563
0.999588
0.999608
0.999625
0.999639
0.999652
0.999663
0.999675
0.999424
0.999456
0.999483
0.999511
0.999539
0.999566
0.999591
0.999612
0.999629
0.999643
0.999655
0.999665
0.999677
0.999423
0.999455
0.999483
0.999513
0.999541
0.99957
0.999595
0.999617
0.999634
0.999647
0.999658
0.999668
0.999679
0.999419
0.999453
0.999483
0.999514
0.999544
0.999573
0.9996
0.999622
0.999639
0.999652
0.999663
0.999672
0.999681
0.999419
0.999452
0.999483
0.999515
0.999546
0.999577
0.999604
0.999627
0.999644
0.999657
0.999667
0.999675
0.999684
0.99942
0.999452
0.999483
0.999516
0.999548
0.99958
0.999608
0.999631
0.999649
0.999661
0.999671
0.999679
0.999687
0.999421
0.999452
0.999483
0.999517
0.99955
0.999583
0.999612
0.999635
0.999653
0.999665
0.999674
0.999682
0.999689
0.999419
0.999448
0.999481
0.999517
0.999552
0.999586
0.999615
0.999639
0.999657
0.999669
0.999678
0.999685
0.999692
0.999384
0.999435
0.999478
0.999518
0.999554
0.999589
0.999619
0.999643
0.999661
0.999673
0.999682
0.999688
0.999694
0.999369
0.999431
0.999479
0.999521
0.999559
0.999593
0.999624
0.999648
0.999665
0.999677
0.999685
0.999691
0.999697
0.999378
0.999442
0.999488
0.999529
0.999565
0.999599
0.999628
0.999652
0.999669
0.999681
0.999689
0.999694
0.999699
0.999418
0.99947
0.999507
0.999539
0.999572
0.999604
0.999633
0.999656
0.999673
0.999684
0.999691
0.999696
0.999701
0.999538
0.999528
0.999529
0.999551
0.999579
0.999609
0.999637
0.999659
0.999675
0.999686
0.999693
0.999698
0.999702
0.999605
0.999538
0.999537
0.999556
0.999583
0.999612
0.999639
0.999661
0.999677
0.999688
0.999694
0.999699
0.999703
0.999513
0.999497
0.999499
0.999511
0.999528
0.999547
0.999564
0.999583
0.999602
0.999624
0.999643
0.999661
0.999678
0.999481
0.999488
0.999498
0.999513
0.999531
0.999551
0.99957
0.999589
0.999608
0.999627
0.999644
0.999661
0.999677
0.999459
0.999477
0.999494
0.999513
0.999533
0.999555
0.999575
0.999595
0.999613
0.99963
0.999646
0.999661
0.999677
0.999444
0.999468
0.999489
0.999512
0.999534
0.999558
0.99958
0.9996
0.999618
0.999633
0.999647
0.999661
0.999676
0.999432
0.999461
0.999486
0.999511
0.999536
0.999561
0.999584
0.999604
0.999621
0.999636
0.999649
0.999662
0.999675
0.999425
0.999456
0.999483
0.999511
0.999537
0.999563
0.999587
0.999608
0.999625
0.999639
0.999651
0.999663
0.999675
0.999427
0.999456
0.999483
0.999512
0.999539
0.999567
0.999592
0.999613
0.99963
0.999643
0.999654
0.999665
0.999676
0.999429
0.999457
0.999484
0.999513
0.999542
0.999571
0.999596
0.999618
0.999635
0.999647
0.999658
0.999668
0.999678
0.999431
0.999458
0.999486
0.999516
0.999545
0.999575
0.999602
0.999623
0.99964
0.999653
0.999663
0.999671
0.99968
0.999428
0.999457
0.999486
0.999518
0.999549
0.99958
0.999607
0.999629
0.999646
0.999658
0.999668
0.999675
0.999684
0.999427
0.999457
0.999487
0.99952
0.999552
0.999584
0.999612
0.999635
0.999652
0.999663
0.999672
0.999679
0.999687
0.999429
0.999458
0.999488
0.999522
0.999555
0.999588
0.999617
0.99964
0.999657
0.999668
0.999677
0.999683
0.99969
0.99943
0.999457
0.999488
0.999523
0.999557
0.999591
0.999621
0.999645
0.999662
0.999673
0.999681
0.999687
0.999692
0.999428
0.999454
0.999487
0.999524
0.99956
0.999595
0.999625
0.999649
0.999666
0.999677
0.999685
0.99969
0.999695
0.999395
0.999442
0.999484
0.999525
0.999563
0.999598
0.999629
0.999654
0.999671
0.999682
0.999689
0.999693
0.999698
0.999381
0.999439
0.999486
0.999528
0.999567
0.999603
0.999634
0.999659
0.999676
0.999686
0.999693
0.999697
0.9997
0.99939
0.999449
0.999495
0.999536
0.999574
0.999609
0.999639
0.999663
0.99968
0.99969
0.999696
0.9997
0.999703
0.999427
0.999475
0.99951
0.999547
0.999581
0.999615
0.999644
0.999668
0.999684
0.999694
0.9997
0.999703
0.999705
0.999538
0.999515
0.999533
0.999558
0.999589
0.99962
0.999649
0.999671
0.999687
0.999697
0.999702
0.999705
0.999707
0.999526
0.999534
0.999541
0.999564
0.999593
0.999624
0.999652
0.999674
0.999689
0.999698
0.999704
0.999706
0.999708
0.999509
0.999492
0.999495
0.999508
0.999526
0.999546
0.999563
0.999581
0.9996
0.999623
0.999642
0.99966
0.999677
0.999475
0.999483
0.999494
0.99951
0.999529
0.99955
0.99957
0.999589
0.999608
0.999627
0.999644
0.999661
0.999677
0.999455
0.999473
0.99949
0.99951
0.999531
0.999554
0.999576
0.999596
0.999614
0.999631
0.999646
0.999661
0.999676
0.999441
0.999464
0.999486
0.99951
0.999534
0.999558
0.999581
0.999602
0.999619
0.999635
0.999649
0.999662
0.999676
0.999431
0.999458
0.999484
0.99951
0.999536
0.999562
0.999586
0.999607
0.999624
0.999638
0.999651
0.999663
0.999675
0.999423
0.999455
0.999483
0.999511
0.999539
0.999566
0.999591
0.999612
0.999629
0.999642
0.999654
0.999665
0.999676
0.999429
0.999457
0.999484
0.999513
0.999542
0.999571
0.999596
0.999618
0.999635
0.999647
0.999658
0.999667
0.999677
0.999436
0.99946
0.999486
0.999516
0.999546
0.999576
0.999602
0.999624
0.999641
0.999653
0.999663
0.999671
0.99968
0.999441
0.999462
0.999489
0.99952
0.999551
0.999581
0.999609
0.999631
0.999647
0.999659
0.999668
0.999676
0.999683
0.999435
0.999463
0.999491
0.999523
0.999555
0.999587
0.999615
0.999638
0.999654
0.999665
0.999674
0.99968
0.999687
0.999435
0.999463
0.999493
0.999526
0.999559
0.999592
0.999621
0.999644
0.999661
0.999671
0.999679
0.999685
0.999691
0.999437
0.999464
0.999494
0.999528
0.999563
0.999597
0.999626
0.99965
0.999666
0.999677
0.999684
0.999689
0.999694
0.999439
0.999464
0.999495
0.99953
0.999566
0.999601
0.999631
0.999655
0.999672
0.999682
0.999689
0.999693
0.999697
0.999437
0.999461
0.999494
0.999532
0.999569
0.999605
0.999636
0.99966
0.999677
0.999687
0.999693
0.999697
0.9997
0.999405
0.999451
0.999492
0.999533
0.999572
0.999609
0.999641
0.999665
0.999682
0.999692
0.999698
0.999701
0.999703
0.999391
0.999448
0.999494
0.999537
0.999577
0.999614
0.999646
0.999671
0.999687
0.999697
0.999702
0.999704
0.999706
0.999401
0.999458
0.999503
0.999545
0.999584
0.99962
0.999652
0.999676
0.999692
0.999702
0.999706
0.999708
0.999709
0.999437
0.999482
0.999519
0.999556
0.999592
0.999627
0.999657
0.999681
0.999697
0.999706
0.99971
0.999711
0.999712
0.999539
0.999529
0.999539
0.999568
0.9996
0.999633
0.999662
0.999685
0.9997
0.999709
0.999713
0.999714
0.999714
0.999575
0.999535
0.999549
0.999575
0.999605
0.999637
0.999665
0.999687
0.999703
0.999711
0.999715
0.999715
0.999715
0.999504
0.999488
0.999491
0.999505
0.999524
0.999544
0.999563
0.999581
0.9996
0.999623
0.999643
0.99966
0.999677
0.999471
0.999478
0.99949
0.999507
0.999527
0.999549
0.99957
0.99959
0.999609
0.999628
0.999645
0.999661
0.999677
0.99945
0.999469
0.999487
0.999508
0.999531
0.999554
0.999577
0.999598
0.999616
0.999632
0.999648
0.999662
0.999677
0.999437
0.999461
0.999484
0.999509
0.999534
0.999559
0.999583
0.999604
0.999622
0.999637
0.99965
0.999663
0.999676
0.999428
0.999455
0.999482
0.99951
0.999537
0.999564
0.999589
0.99961
0.999628
0.999641
0.999654
0.999665
0.999677
0.999422
0.999454
0.999482
0.999512
0.999541
0.999569
0.999595
0.999617
0.999634
0.999646
0.999657
0.999667
0.999678
0.99943
0.999457
0.999485
0.999515
0.999545
0.999575
0.999601
0.999623
0.99964
0.999652
0.999662
0.999671
0.99968
0.99944
0.999462
0.999489
0.99952
0.999551
0.999581
0.999608
0.999631
0.999647
0.999659
0.999668
0.999675
0.999683
0.999446
0.999466
0.999492
0.999524
0.999556
0.999588
0.999616
0.999638
0.999655
0.999666
0.999674
0.999681
0.999687
0.999441
0.999467
0.999496
0.999529
0.999562
0.999595
0.999623
0.999646
0.999663
0.999673
0.999681
0.999686
0.999691
0.999439
0.999468
0.999498
0.999532
0.999567
0.999601
0.99963
0.999654
0.99967
0.99968
0.999687
0.999691
0.999696
0.999441
0.999469
0.9995
0.999536
0.999571
0.999606
0.999636
0.99966
0.999677
0.999687
0.999693
0.999696
0.999699
0.999444
0.999469
0.999501
0.999538