# vtk DataFile Version 2.0
I need something to put here
ASCII

DATASET STRUCTURED_GRID
DIMENSIONS 14 21 40
POINTS 11760 float
0.325000 0.000000 0.000000
0.350000 0.000000 0.000000
0.375000 0.000000 0.000000
0.400000 0.000000 0.000000
0.425000 0.000000 0.000000
0.450000 0.000000 0.000000
0.475000 0.000000 0.000000
0.500000 0.000000 0.000000
0.525000 0.000000 0.000000
0.550000 0.000000 0.000000
0.575000 0.000000 0.000000
0.600000 0.000000 0.000000
0.625000 0.000000 0.000000
0.650000 0.000000 0.000000
0.325000 0.025000 0.000000
0.350000 0.025000 0.000000
0.375000 0.025000 0.000000
0.400000 0.025000 0.000000
0.425000 0.025000 0.000000
0.450000 0.025000 0.000000
0.475000 0.025000 0.000000
0.500000 0.025000 0.000000
0.525000 0.025000 0.000000
0.550000 0.025000 0.000000
0.575000 0.025000 0.000000
0.600000 0.025000 0.000000
0.625000 0.025000 0.000000
0.650000 0.025000 0.000000
0.325000 0.050000 0.000000
0.350000 0.050000 0.000000
0.375000 0.050000 0.000000
0.400000 0.050000 0.000000
0.425000 0.050000 0.000000
0.450000 0.050000 0.000000
0.475000 0.050000 0.000000
0.500000 0.050000 0.000000
0.525000 0.050000 0.000000
0.550000 0.050000 0.000000
0.575000 0.050000 0.000000
0.600000 0.050000 0.000000
0.625000 0.050000 0.000000
0.650000 0.050000 0.000000
0.325000 0.075000 0.000000
0.350000 0.075000 0.000000
0.375000 0.075000 0.000000
0.400000 0.075000 0.000000
0.425000 0.075000 0.000000
0.450000 0.075000 0.000000
0.475000 0.075000 0.000000
0.500000 0.075000 0.000000
0.525000 0.075000 0.000000
0.550000 0.075000 0.000000
0.575000 0.075000 0.000000
0.600000 0.075000 0.000000
0.625000 0.075000 0.000000
0.650000 0.075000 0.000000
0.325000 0.100000 0.000000
0.350000 0.100000 0.000000
0.375000 0.100000 0.000000
0.400000 0.100000 0.000000
0.425000 0.100000 0.000000
0.450000 0.100000 0.000000
0.475000 0.100000 0.000000
0.500000 0.100000 0.000000
0.525000 0.100000 0.000000
0.550000 0.100000 0.000000
0.575000 0.100000 0.000000
0.600000 0.100000 0.000000
0.625000 0.100000 0.000000
0.650000 0.100000 0.000000
0.325000 0.125000 0.000000
0.350000 0.125000 0.000000
0.375000 0.125000 0.000000
0.400000 0.125000 0.000000
0.425000 0.125000 0.000000
0.450000 0.125000 0.000000
0.475000 0.125000 0.000000
0.500000 0.125000 0.000000
0.525000 0.125000 0.000000
0.550000 0.125000 0.000000
0.575000 0.125000 0.000000
0.600000 0.125000 0.000000
0.625000 0.125000 0.000000
0.650000 0.125000 0.000000
0.325000 0.150000 0.000000
0.350000 0.150000 0.000000
0.375000 0.150000 0.000000
0.400000 0.150000 0.000000
0.425000 0.150000 0.000000
0.450000 0.150000 0.000000
0.475000 0.150000 0.000000
0.500000 0.150000 0.000000
0.525000 0.150000 0.000000
0.550000 0.150000 0.000000
0.575000 0.150000 0.000000
0.600000 0.150000 0.000000
0.625000 0.150000 0.000000
0.650000 0.150000 0.000000
0.325000 0.175000 0.000000
0.350000 0.175000 0.000000
0.375000 0.175000 0.000000
0.400000 0.175000 0.000000
0.425000 0.175000 0.000000
0.450000 0.175000 0.000000
0.475000 0.175000 0.000000
0.500000 0.175000 0.000000
0.525000 0.175000 0.000000
0.550000 0.175000 0.000000
0.575000 0.175000 0.000000
0.600000 0.175000 0.000000
0.625000 0.175000 0.000000
0.650000 0.175000 0.000000
0.325000 0.200000 0.000000
0.350000 0.200000 0.000000
0.375000 0.200000 0.000000
0.400000 0.200000 0.000000
0.425000 0.200000 0.000000
0.450000 0.200000 0.000000
0.475000 0.200000 0.000000
0.500000 0.200000 0.000000
0.525000 0.200000 0.000000
0.550000 0.200000 0.000000
0.575000 0.200000 0.000000
0.600000 0.200000 0.000000
0.625000 0.200000 0.000000
0.650000 0.200000 0.000000
0.325000 0.225000 0.000000
0.350000 0.225000 0.000000
0.375000 0.225000 0.000000
0.400000 0.225000 0.000000
0.425000 0.225000 0.000000
0.450000 0.225000 0.000000
0.475000 0.225000 0.000000
0.500000 0.225000 0.000000
0.525000 0.225000 0.000000
0.550000 0.225000 0.000000
0.575000 0.225000 0.000000
0.600000 0.225000 0.000000
0.625000 0.225000 0.000000
0.650000 0.225000 0.000000
0.325000 0.250000 0.000000
0.350000 0.250000 0.000000
0.375000 0.250000 0.000000
0.400000 0.250000 0.000000
0.425000 0.250000 0.000000
0.450000 0.250000 0.000000
0.475000 0.250000 0.000000
0.500000 0.250000 0.000000
0.525000 0.250000 0.000000
0.550000 0.250000 0.000000
0.575000 0.250000 0.000000
0.600000 0.250000 0.000000
0.625000 0.250000 0.000000
0.650000 0.250000 0.000000
0.325000 0.275000 0.000000
0.350000 0.275000 0.000000
0.375000 0.275000 0.000000
0.400000 0.275000 0.000000
0.425000 0.275000 0.000000
0.450000 0.275000 0.000000
0.475000 0.275000 0.000000
0.500000 0.275000 0.000000
0.525000 0.275000 0.000000
0.550000 0.275000 0.000000
0.575000 0.275000 0.000000
0.600000 0.275000 0.000000
0.625000 0.275000 0.000000
0.650000 0.275000 0.000000
0.325000 0.300000 0.000000
0.350000 0.300000 0.000000
0.375000 0.300000 0.000000
0.400000 0.300000 0.000000
0.425000 0.300000 0.000000
0.450000 0.300000 0.000000
0.475000 0.300000 0.000000
0.500000 0.300000 0.000000
0.525000 0.300000 0.000000
0.550000 0.300000 0.000000
0.575000 0.300000 0.000000
0.600000 0.300000 0.000000
0.625000 0.300000 0.000000
0.650000 0.300000 0.000000
0.325000 0.325000 0.000000
0.350000 0.325000 0.000000
0.375000 0.325000 0.000000
0.400000 0.325000 0.000000
0.425000 0.325000 0.000000
0.450000 0.325000 0.000000
0.475000 0.325000 0.000000
0.500000 0.325000 0.000000
0.525000 0.325000 0.000000
0.550000 0.325000 0.000000
0.575000 0.325000 0.000000
0.600000 0.325000 0.000000
0.625000 0.325000 0.000000
0.650000 0.325000 0.000000
0.325000 0.350000 0.000000
0.350000 0.350000 0.000000
0.375000 0.350000 0.000000
0.400000 0.350000 0.000000
0.425000 0.350000 0.000000
0.450000 0.350000 0.000000
0.475000 0.350000 0.000000
0.500000 0.350000 0.000000
0.525000 0.350000 0.000000
0.550000 0.350000 0.000000
0.575000 0.350000 0.000000
0.600000 0.350000 0.000000
0.625000 0.350000 0.000000
0.650000 0.350000 0.000000
0.325000 0.375000 0.000000
0.350000 0.375000 0.000000
0.375000 0.375000 0.000000
0.400000 0.375000 0.000000
0.425000 0.375000 0.000000
0.450000 0.375000 0.000000
0.475000 0.375000 0.000000
0.500000 0.375000 0.000000
0.525000 0.375000 0.000000
0.550000 0.375000 0.000000
0.575000 0.375000 0.000000
0.600000 0.375000 0.000000
0.625000 0.375000 0.000000
0.650000 0.375000 0.000000
0.325000 0.400000 0.000000
0.350000 0.400000 0.000000
0.375000 0.400000 0.000000
0.400000 0.400000 0.000000
0.425000 0.400000 0.000000
0.450000 0.400000 0.000000
0.475000 0.400000 0.000000
0.500000 0.400000 0.000000
0.525000 0.400000 0.000000
0.550000 0.400000 0.000000
0.575000 0.400000 0.000000
0.600000 0.400000 0.000000
0.625000 0.400000 0.000000
0.650000 0.400000 0.000000
0.325000 0.425000 0.000000
0.350000 0.425000 0.000000
0.375000 0.425000 0.000000
0.400000 0.425000 0.000000
0.425000 0.425000 0.000000
0.450000 0.425000 0.000000
0.475000 0.425000 0.000000
0.500000 0.425000 0.000000
0.525000 0.425000 0.000000
0.550000 0.425000 0.000000
0.575000 0.425000 0.000000
0.600000 0.425000 0.000000
0.625000 0.425000 0.000000
0.650000 0.425000 0.000000
0.325000 0.450000 0.000000
0.350000 0.450000 0.000000
0.375000 0.450000 0.000000
0.400000 0.450000 0.000000
0.425000 0.450000 0.000000
0.450000 0.450000 0.000000
0.475000 0.450000 0.000000
0.500000 0.450000 0.000000
0.525000 0.450000 0.000000
0.550000 0.450000 0.000000
0.575000 0.450000 0.000000
0.600000 0.450000 0.000000
0.625000 0.450000 0.000000
0.650000 0.450000 0.000000
0.325000 0.475000 0.000000
0.350000 0.475000 0.000000
0.375000 0.475000 0.000000
0.400000 0.475000 0.000000
0.425000 0.475000 0.000000
0.450000 0.475000 0.000000
0.475000 0.475000 0.000000
0.500000 0.475000 0.000000
0.525000 0.475000 0.000000
0.550000 0.475000 0.000000
0.575000 0.475000 0.000000
0.600000 0.475000 0.000000
0.625000 0.475000 0.000000
0.650000 0.475000 0.000000
0.325000 0.500000 0.000000
0.350000 0.500000 0.000000
0.375000 0.500000 0.000000
0.400000 0.500000 0.000000
0.425000 0.500000 0.000000
0.450000 0.500000 0.000000
0.475000 0.500000 0.000000
0.500000 0.500000 0.000000
0.525000 0.500000 0.000000
0.550000 0.500000 0.000000
0.575000 0.500000 0.000000
0.600000 0.500000 0.000000
0.625000 0.500000 0.000000
0.650000 0.500000 0.000000
0.325000 0.000000 0.025000
0.350000 0.000000 0.025000
0.375000 0.000000 0.025000
0.400000 0.000000 0.025000
0.425000 0.000000 0.025000
0.450000 0.000000 0.025000
0.475000 0.000000 0.025000
0.500000 0.000000 0.025000
0.525000 0.000000 0.025000
0.550000 0.000000 0.025000
0.575000 0.000000 0.025000
0.600000 0.000000 0.025000
0.625000 0.000000 0.025000
0.650000 0.000000 0.025000
0.325000 0.025000 0.025000
0.350000 0.025000 0.025000
0.375000 0.025000 0.025000
0.400000 0.025000 0.025000
0.425000 0.025000 0.025000
0.450000 0.025000 0.025000
0.475000 0.025000 0.025000
0.500000 0.025000 0.025000
0.525000 0.025000 0.025000
0.550000 0.025000 0.025000
0.575000 0.025000 0.025000
0.600000 0.025000 0.025000
0.625000 0.025000 0.025000
0.650000 0.025000 0.025000
0.325000 0.050000 0.025000
0.350000 0.050000 0.025000
0.375000 0.050000 0.025000
0.400000 0.050000 0.025000
0.425000 0.050000 0.025000
0.450000 0.050000 0.025000
0.475000 0.050000 0.025000
0.500000 0.050000 0.025000
0.525000 0.050000 0.025000
0.550000 0.050000 0.025000
0.575000 0.050000 0.025000
0.600000 0.050000 0.025000
0.625000 0.050000 0.025000
0.650000 0.050000 0.025000
0.325000 0.075000 0.025000
0.350000 0.075000 0.025000
0.375000 0.075000 0.025000
0.400000 0.075000 0.025000
0.425000 0.075000 0.025000
0.450000 0.075000 0.025000
0.475000 0.075000 0.025000
0.500000 0.075000 0.025000
0.525000 0.075000 0.025000
0.550000 0.075000 0.025000
0.575000 0.075000 0.025000
0.600000 0.075000 0.025000
0.625000 0.075000 0.025000
0.650000 0.075000 0.025000
0.325000 0.100000 0.025000
0.350000 0.100000 0.025000
0.375000 0.100000 0.025000
0.400000 0.100000 0.025000
0.425000 0.100000 0.025000
0.450000 0.100000 0.025000
0.475000 0.100000 0.025000
0.500000 0.100000 0.025000
0.525000 0.100000 0.025000
0.550000 0.100000 0.025000
0.575000 0.100000 0.025000
0.600000 0.100000 0.025000
0.625000 0.100000 0.025000
0.650000 0.100000 0.025000
0.325000 0.125000 0.025000
[...]
CELL_DATA 10140
SCALARS density float 1
LOOKUP_TABLE default
0.999687
0.999718
0.999747
0.999773
0.999798
0.999821
0.999842
0.999862
0.999882
0.999903
0.999925
0.999951
0.999977
0.999662
0.999694
0.999727
0.999759
0.99979
0.99982
0.999847
0.999874
0.999901
0.999928
0.999955
0.999982
1.00001
0.999638
0.999672
0.999708
0.999744
0.99978
0.999816
0.99985
0.999884
0.999916
0.999948
0.999978
1.00001
1.00004
0.999616
0.999651
0.999689
0.999728
0.999769
0.999811
0.999851
0.999891
0.999929
0.999964
0.999999
1.00003
1.00006
0.999594
0.99963
0.99967
0.999713
0.999758
0.999806
0.999851
0.999896
0.99994
0.999979
1.00002
1.00005
1.00008
0.999573
0.99961
0.999652
0.999698
0.999748
0.9998
0.999851
0.999901
0.999949
0.999993
1.00003
1.00007
1.0001
0.999554
0.999592
0.999636
0.999685
0.999738
0.999795
0.99985
0.999904
0.999956
1
1.00005
1.00008
1.00012
0.999537
0.999577
0.999623
0.999675
0.999731
0.999791
0.999849
0.999907
0.999961
1.00001
1.00006
1.0001
1.00013
0.999523
0.999564
0.999612
0.999666
0.999725
0.999787
0.999848
0.999909
0.999965
1.00002
1.00006
1.00011
1.00014
0.999511
0.999553
0.999603
0.999659
0.99972
0.999785
0.999848
0.999911
0.99997
1.00002
1.00007
1.00012
1.00015
0.999502
0.999546
0.999597
0.999655
0.999718
0.999784
0.999849
0.999913
0.999973
1.00003
1.00008
1.00012
1.00016
0.999496
0.999541
0.999594
0.999653
0.999717
0.999784
0.99985
0.999914
0.999975
1.00003
1.00008
1.00013
1.00017
0.999493
0.999539
0.999593
0.999654
0.999719
0.999786
0.999852
0.999917
0.999978
1.00003
1.00009
1.00013
1.00017
0.999492
0.999539
0.999594
0.999656
0.999721
0.999789
0.999855
0.99992
0.999982
1.00004
1.00009
1.00014
1.00018
0.999494
0.999541
0.999597
0.99966
0.999724
0.999792
0.999857
0.999921
0.999982
1.00004
1.00009
1.00014
1.00018
0.999498
0.999546
0.999602
0.999665
0.999729
0.999796
0.999861
0.999925
0.999985
1.00004
1.0001
1.00014
1.00018
0.999503
0.999552
0.999609
0.999672
0.999736
0.999802
0.999867
0.999931
0.999991
1.00005
1.0001
1.00015
1.00019
0.999509
0.999558
0.999615
0.999678
0.999743
0.999809
0.999876
0.99994
1
1.00006
1.00011
1.00016
1.0002
0.999514
0.999565
0.999623
0.999687
0.999753
0.999821
0.999887
0.999952
1.00001
1.00007
1.00012
1.00017
1.00022
0.999517
0.999571
0.999631
0.999694
0.99976
0.999826
0.99989
0.999952
1.00001
1.00007
1.00013
1.00018
1.00022
0.999662
0.999694
0.999727
0.999759
0.99979
0.99982
0.999847
0.999874
0.999901
0.999928
0.999954
0.999982
1.00001
0.999637
0.999669
0.999703
0.999739
0.999775
0.999812
0.999848
0.999883
0.999917
0.999949
0.99998
1.00001
1.00004
0.999613
0.999646
0.999681
0.99972
0.999762
0.999806
0.999849
0.999892
0.999932
0.999969
1
1.00003
1.00006
0.999591
0.999623
0.99966
0.999702
0.999749
0.999799
0.999849
0.999899
0.999946
0.999987
1.00002
1.00006
1.00008
0.99957
0.999602
0.99964
0.999685
0.999736
0.999792
0.999849
0.999905
0.999957
1
1.00004
1.00008
1.0001
0.99955
0.999581
0.999621
0.999669
0.999724
0.999785
0.999848
0.99991
0.999967
1.00002
1.00006
1.00009
1.00012
0.99953
0.999563
0.999603
0.999654
0.999713
0.999779
0.999847
0.999914
0.999975
1.00003
1.00007
1.00011
1.00014
0.999513
0.999546
0.999588
0.999642
0.999704
0.999774
0.999846
0.999917
0.999982
1.00004
1.00009
1.00012
1.00015
0.999498
0.999532
0.999576
0.999631
0.999697
0.99977
0.999845
0.999919
0.999987
1.00005
1.0001
1.00013
1.00016
0.999485
0.99952
0.999565
0.999623
0.999691
0.999767
0.999844
0.999921
0.999991
1.00005
1.0001
1.00014
1.00017
0.999474
0.99951
0.999558
0.999618
0.999687
0.999765
0.999844
0.999922
0.999994
1.00006
1.00011
1.00015
1.00018
0.999466
0.999504
0.999553
0.999614
0.999685
0.999764
0.999844
0.999923
0.999996
1.00006
1.00011
1.00016
1.00019
0.99946
0.999499
0.99955
0.999613
0.999685
0.999764
0.999845
0.999924
0.999998
1.00006
1.00012
1.00016
1.0002
0.999457
0.999498
0.99955
0.999614
0.999687
0.999766
0.999847
0.999926
1
1.00006
1.00012
1.00016
1.0002
0.999457
0.999499
0.999552
0.999617
0.99969
0.999769
0.99985
0.999928
1
1.00007
1.00012
1.00017
1.0002
0.99946
0.999503
0.999556
0.999622
0.999695
0.999774
0.999854
0.999932
1.00001
1.00007
1.00013
1.00017
1.00021
0.999464
0.999508
0.999562
0.999628
0.999701
0.999779
0.99986
0.999937
1.00001
1.00008
1.00013
1.00018
1.00021
0.999469
0.999513
0.999568
0.999634
0.999707
0.999786
0.999866
0.999944
1.00002
1.00008
1.00014
1.00018
1.00022
0.999474
0.999519
0.999575
0.99964
0.999714
0.999792
0.999872
0.99995
1.00002
1.00009
1.00014
1.00019
1.00023
0.999477
0.999523
0.999578
0.999644
0.999717
0.999794
0.999873
0.99995
1.00002
1.00009
1.00014
1.00019
1.00023
0.999638
0.999672
0.999708
0.999744
0.99978
0.999816
0.99985
0.999883
0.999916
0.999947
0.999978
1.00001
1.00004
0.999613
0.999646
0.999681
0.99972
0.999762
0.999805
0.999849
0.999892
0.999932
0.999969
1
1.00003
1.00006
0.99959
0.999621
0.999657
0.999698
0.999745
0.999796
0.999848
0.9999
0.999947
0.999989
1.00003
1.00006
1.00008
0.999569
0.999598
0.999634
0.999678
0.99973
0.999788
0.999848
0.999907
0.999961
1.00001
1.00005
1.00008
1.00011
0.999548
0.999576
0.999612
0.999659
0.999715
0.999779
0.999847
0.999913
0.999974
1.00003
1.00007
1.0001
1.00013
0.999527
0.999555
0.999592
0.999641
0.999702
0.999772
0.999846
0.999918
0.999985
1.00004
1.00008
1.00012
1.00014
0.999508
0.999535
0.999573
0.999625
0.999689
0.999764
0.999844
0.999922
0.999993
1.00005
1.0001
1.00013
1.00016
0.99949
0.999517
0.999556
0.999611
0.999679
0.999758
0.999842
0.999925
1
1.00006
1.00011
1.00015
1.00017
0.999474
0.999502
0.999542
0.999599
0.99967
0.999753
0.999841
0.999928
1.00001
1.00007
1.00012
1.00016
1.00019
0.99946
0.999488
0.999531
0.99959
0.999664
0.999749
0.99984
0.999929
1.00001
1.00008
1.00013
1.00017
1.0002
0.999448
0.999477
0.999522
0.999583
0.999659
0.999746
0.999839
0.99993
1.00001
1.00008
1.00014
1.00018
1.0002
0.999437
0.999469
0.999515
0.999578
0.999655
0.999745
0.999838
0.99993
1.00001
1.00008
1.00014
1.00018
1.00021
0.99943
0.999463
0.99951
0.999575
0.999654
0.999744
0.999838
0.999931
1.00002
1.00009
1.00014
1.00019
1.00022
0.999425
0.999459
0.999509
0.999575
0.999655
0.999745
0.999839
0.999932
1.00002
1.00009
1.00015
1.00019
1.00022
0.999423
0.999459
0.99951
0.999577
0.999657
0.999747
0.999842
0.999934
1.00002
1.00009
1.00015
1.00019
1.00023
0.999424
0.999462
0.999514
0.999581
0.999662
0.999752
0.999845
0.999937
1.00002
1.00009
1.00015
1.0002
1.00023
0.999428
0.999466
0.999519
0.999587
0.999667
0.999757
0.99985
0.999942
1.00003
1.0001
1.00016
1.0002
1.00024
0.999432
0.999472
0.999525
0.999593
0.999673
0.999763
0.999856
0.999947
1.00003
1.0001
1.00016
1.00021
1.00024
0.999436
0.999476
0.99953
0.999598
0.999679
0.999768
0.99986
0.99995
1.00003
1.00011
1.00017
1.00021
1.00025
0.999439
0.99948
0.999533
0.999601
0.999681
0.999769
0.999861
0.999951
1.00003
1.0001
1.00016
1.00021
1.00025
0.999615
0.999651
0.999689
0.999728
0.999769
0.999811
0.999851
0.99989
0.999928
0.999964
0.999998
1.00003
1.00006
0.999591
0.999623
0.99966
0.999702
0.999749
0.999799
0.999849
0.999899
0.999945
0.999987
1.00002
1.00006
1.00008
0.999568
0.999598
0.999634
0.999678
0.99973
0.999788
0.999848
0.999907
0.999961
1.00001
1.00005
1.00008
1.00011
0.999547
0.999574
0.999609
0.999656
0.999712
0.999777
0.999846
0.999914
0.999976
1.00003
1.00007
1.0001
1.00013
0.999526
0.999551
0.999586
0.999635
0.999696
0.999768
0.999845
0.999921
0.999989
1.00005
1.00009
1.00012
1.00015
0.999505
0.999529
0.999564
0.999615
0.999681
0.999759
0.999843
0.999926
1
1.00006
1.00011
1.00014
1.00016
0.999486
0.999508
0.999544
0.999597
0.999667
0.999751
0.999841
0.99993
1.00001
1.00008
1.00012
1.00016
1.00018
0.999467
0.999489
0.999526
0.999582
0.999655
0.999744
0.999839
0.999933
1.00002
1.00009
1.00014
1.00017
1.00019
0.99945
0.999473
0.99951
0.999569
0.999645
0.999738
0.999838
0.999936
1.00002
1.0001
1.00015
1.00018
1.00021
0.999435
0.999458
0.999497
0.999558
0.999638
0.999733
0.999836
0.999937
1.00003
1.0001
1.00016
1.00019
1.00022
0.999421
0.999446
0.999487
0.99955
0.999632
0.999729
0.999834
0.999937
1.00003
1.00011
1.00016
1.0002
1.00022
0.999409
0.999435
0.999479
0.999544
0.999627
0.999727
0.999833
0.999937
1.00003
1.00011
1.00017
1.00021
1.00023
0.999399
0.999427
0.999473
0.99954
0.999625
0.999725
0.999832
0.999936
1.00003
1.00011
1.00017
1.00021
1.00024
0.999393
0.999423
0.99947
0.999539
0.999625
0.999725
0.999832
0.999936
1.00003
1.00011
1.00017
1.00021
1.00024
0.99939
0.999421
0.99947
0.99954
0.999627
0.999727
0.999834
0.999938
1.00003
1.00011
1.00017
1.00022
1.00025
0.99939
0.999423
0.999473
0.999544
0.999631
0.999731
0.999837
0.999941
1.00003
1.00011
1.00018
1.00022
1.00025
0.999392
0.999427
0.999478
0.999549
0.999637
0.999736
0.999842
0.999945
1.00004
1.00012
1.00018
1.00023
1.00026
0.999396
0.999432
0.999484
0.999555
0.999642
0.999742
0.999846
0.999949
1.00004
1.00012
1.00018
1.00023
1.00026
0.9994
0.999436
0.999489
0.99956
0.999647
0.999746
0.99985
0.999952
1.00004
1.00012
1.00019
1.00023
1.00027
0.999403
0.99944
0.999492
0.999563
0.999649
0.999748
0.999851
0.999952
1.00004
1.00012
1.00019
1.00023
1.00027
0.999593
0.99963
0.99967
0.999713
0.999758
0.999805
0.999851
0.999896
0.999939
0.999978
1.00002
1.00005
1.00008
0.999569
0.999601
0.999639
0.999685
0.999736
0.999792
0.999849
0.999905
0.999957
1
1.00004
1.00008
1.0001
0.999546
0.999575
0.999611
0.999659
0.999715
0.999779
0.999847
0.999913
0.999973
1.00002
1.00007
1.0001
1.00013
0.999525
0.99955
0.999585
0.999634
0.999696
0.999768
0.999845
0.999921
0.999989
1.00005
1.00009
1.00012
1.00015
0.999504
0.999526
0.999561
0.999611
0.999678
0.999757
0.999843
0.999927
1
1.00006
1.00011
1.00014
1.00017
0.999483
0.999503
0.999537
0.99959
0.999661
0.999747
0.99984
0.999933
1.00001
1.00008
1.00013
1.00016
1.00018
0.999463
0.999482
0.999516
0.999571
0.999646
0.999738
0.999838
0.999937
1.00003
1.0001
1.00015
1.00018
1.0002
0.999444
0.999462
0.999496
0.999554
0.999633
0.99973
0.999836
0.99994
1.00003
1.00011
1.00016
1.00019
1.00021
0.999426
0.999444
0.99948
0.99954
0.999622
0.999723
0.999834
0.999942
1.00004
1.00012
1.00017
1.00021
1.00023
0.99941
0.999428
0.999466
0.999528
0.999613
0.999718
0.999831
0.999943
1.00004
1.00012
1.00018
1.00022
1.00024
0.999394
0.999414
0.999454
0.999519
0.999607
0.999713
0.999829
0.999943
1.00004
1.00013
1.00019
1.00022
1.00024
0.999381
0.999402
0.999444
0.999511
0.999601
0.99971
0.999826
0.999941
1.00004
1.00013
1.00019
1.00023
1.00025
0.999369
0.999393
0.999437
0.999506
0.999598
0.999707
0.999825
0.99994
1.00004
1.00013
1.00019
1.00023
1.00026
0.999361
0.999387
0.999433
0.999504
0.999597
0.999707
0.999824
0.999939
1.00004
1.00013
1.00019
1.00023
1.00026
0.999356
0.999385
0.999433
0.999505
0.999599
0.999708
0.999825
0.99994
1.00004
1.00013
1.00019
1.00024
1.00027
0.999356
0.999386
0.999436
0.999509
0.999603
0.999712
0.999828
0.999942
1.00005
1.00013
1.0002
1.00024
1.00027
0.999358
0.999389
0.999441
0.999515
0.999608
0.999717
0.999833
0.999946
1.00005
1.00013
1.0002
1.00025
1.00028
0.999361
0.999394
0.999446
0.99952
0.999614
0.999723
0.999838
0.99995
1.00005
1.00014
1.0002
1.00025
1.00028
0.999365
0.999399
0.999451
0.999525
0.999619
0.999727
0.999841
0.999953
1.00005
1.00014
1.00021
1.00025
1.00029
0.999368
0.999402
0.999454
0.999529
0.999621
0.999729
0.999842
0.999954
1.00005
1.00014
1.00021
1.00025
1.00028
0.999572
0.999609
0.999651
0.999698
0.999747
0.9998
0.99985
0.9999
0.999948
0.999992
1.00003
1.00007
1.0001
0.999547
0.99958
0.99962
0.999668
0.999723
0.999785
0.999848
0.999909
0.999967
1.00002
1.00006
1.00009
1.00012
0.999525
0.999553
0.999591
0.99964
0.999701
0.999771
0.999845
0.999918
0.999984
1.00004
1.00008
1.00012
1.00014
0.999503
0.999527
0.999563
0.999614
0.99968
0.999759
0.999843
0.999926
1
1.00006
1.00011
1.00014
1.00016
0.999482
0.999502
0.999537
0.99959
0.999661
0.999747
0.99984
0.999933
1.00001
1.00008
1.00013
1.00016
1.00018
0.999461
0.999478
0.999512
0.999567
0.999643
0.999736
0.999838
0.999938
1.00003
1.0001
1.00015
1.00018
1.0002
0.99944
0.999455
0.999489
0.999546
0.999626
0.999726
0.999835
0.999943
1.00004
1.00011
1.00017
1.0002
1.00022
0.99942
0.999434
0.999468
0.999528
0.999612
0.999717
0.999832
0.999946
1.00005
1.00013
1.00018
1.00021
1.00023
0.999401
0.999415
0.99945
0.999513
0.999601
0.99971
0.99983
0.999948
1.00005
1.00013
1.00019
1.00023
1.00024
0.999384
0.999398
0.999435
0.9995
0.999591
0.999704
0.999827
0.999948
1.00006
1.00014
1.0002
1.00024
1.00025
0.999367
0.999383
0.999422
0.999489
0.999583
0.999698
0.999824
0.999947
1.00006
1.00014
1.00021
1.00024
1.00026
0.999351
0.99937
0.999411
0.999481
0.999577
0.999694
0.99982
0.999945
1.00006
1.00014
1.00021
1.00025
1.00027
0.999339
0.999359
0.999403
0.999476
0.999573
0.999691
0.999818
0.999942
1.00005
1.00014
1.00021
1.00025
1.00027
0.999329
0.999352
0.999399
0.999473
0.999572
0.99969
0.999816
0.999941
1.00005
1.00014
1.00021
1.00025
1.00028
0.999324
0.99935
0.999398
0.999474
0.999573
0.999691
0.999817
0.999941
1.00005
1.00014
1.00021
1.00026
1.00028
0.999322
0.99935
0.999401
0.999478
0.999577
0.999695
0.99982
0.999943
1.00005
1.00015
1.00021
1.00026
1.00029
0.999324
0.999354
0.999406
0.999483
0.999583
0.9997
0.999825
0.999947
1.00006
1.00015
1.00022
1.00027
1.0003
0.999328
0.999359
0.999411
0.999489
0.999589
0.999705
0.999829
0.999951
1.00006
1.00015
1.00022
1.00027
1.0003
0.999332
0.999364
0.999417
0.999495
0.999594
0.99971
0.999833
0.999954
1.00006
1.00015
1.00022
1.00027
1.0003
0.999335
0.999367
0.99942
0.999498
0.999597
0.999712
0.999834
0.999954
1.00006
1.00015
1.00022
1.00027
1.0003
0.999552
0.999591
0.999635
0.999685
0.999738
0.999794
0.999849
0.999903
0.999955
1
1.00004
1.00008
1.00012
0.999527
0.99956
0.999602
0.999653
0.999712
0.999778
0.999846
0.999913
0.999974
1.00003
1.00007
1.00011
1.00014
0.999504
0.999532
0.999571
0.999623
0.999688
0.999764
0.999843
0.999922
0.999993
1.00005
1.0001
1.00013
1.00016
0.999482
0.999505
0.999542
0.999596
0.999666
0.99975
0.999841
0.99993
1.00001
1.00008
1.00012
1.00016
1.00018
0.99946
0.999479
0.999514
0.99957
0.999645
0.999737
0.999838
0.999937
1.00003
1.0001
1.00015
1.00018
1.0002
0.999438
0.999454
0.999488
0.999545
0.999626
0.999726
0.999835
0.999943
1.00004
1.00011
1.00017
1.0002
1.00022
0.999416
0.99943
0.999463
0.999523
0.999609
0.999715
0.999832
0.999947
1.00005
1.00013
1.00019
1.00022
1.00024
0.999396
0.999408
0.999442
0.999504
0.999594
0.999706
0.999829
0.99995
1.00006
1.00014
1.0002
1.00023
1.00025
0.999376
0.999388
0.999423
0.999488
0.999581
0.999698
0.999826
0.999952
1.00006
1.00015
1.00021
1.00025
1.00026
0.999357
0.999369
0.999406
0.999474
0.999571
0.999691
0.999822
0.999951
1.00007
1.00016
1.00022
1.00026
1.00027
0.999339
0.999353
0.999392
0.999463
0.999562
0.999685
0.999818
0.999949
1.00007
1.00016
1.00022
1.00026
1.00028
0.999322
0.999338
0.99938
0.999454
0.999555
0.999679
0.999814
0.999946
1.00006
1.00016
1.00023
1.00027
1.00029
0.999308
0.999327
0.999372
0.999447
0.999551
0.999676
0.99981
0.999943
1.00006
1.00016
1.00023
1.00027
1.00029
0.999298
0.999319
0.999367
0.999445
0.999549
0.999674
0.999809
0.99994
1.00006
1.00015
1.00023
1.00027
1.00029
0.999292
0.999316
0.999366
0.999445
0.999551
0.999675
0.999809
0.99994
1.00006
1.00015
1.00023
1.00027
1.0003
0.99929
0.999317
0.999369
0.999449
0.999555
0.999679
0.999812
0.999942
1.00006
1.00016
1.00023
1.00028
1.0003
0.999292
0.999321
0.999374
0.999455
0.999561
0.999685
0.999817
0.999946
1.00006
1.00016
1.00023
1.00028
1.00031
0.999296
0.999326
0.99938
0.999462
0.999567
0.999691
0.999822
0.99995
1.00007
1.00016
1.00024
1.00029
1.00032
0.9993
0.999331
0.999386
0.999468
0.999573
0.999695
0.999826
0.999953
1.00007
1.00016
1.00024
1.00029
1.00032
0.999303
0.999335
0.99939
0.999471
0.999576
0.999698
0.999827
0.999954
1.00007
1.00016
1.00024
1.00029
1.00032
0.999534
0.999574
0.999621
0.999674
0.99973
0.99979
0.999847
0.999906
0.99996
1.00001
1.00006
1.0001
1.00013
0.999509
0.999542
0.999586
0.99964
0.999703
0.999773
0.999845
0.999916
0.999981
1.00004
1.00009
1.00012
1.00015
0.999485
0.999513
0.999553
0.999609
0.999677
0.999757
0.999842
0.999925
1
1.00006
1.00011
1.00015
1.00018
0.999462
0.999485
0.999523
0.999579
0.999654
0.999743
0.999839
0.999933
1.00002
1.00009
1.00014
1.00017
1.0002
0.999439
0.999458
0.999493
0.999552
0.999632
0.999729
0.999836
0.99994
1.00003
1.00011
1.00016
1.0002
1.00022
0.999417
0.999432
0.999466
0.999526
0.999611
0.999717
0.999832
0.999946
1.00005
1.00013
1.00018
1.00022
1.00023
0.999394
0.999406
0.99944
0.999503
0.999593
0.999705
0.999829
0.99995
1.00006
1.00014
1.0002
1.00023
1.00025
0.999372
0.999383
0.999418
0.999483
0.999577
0.999695
0.999825
0.999953
1.00007
1.00015
1.00022
1.00025
1.00027
0.999351
0.999362
0.999397
0.999466
0.999564
0.999687
0.999821
0.999954
1.00007
1.00016
1.00023
1.00026
1.00028
0.999331
0.999342
0.99938
0.999451
0.999553
0.999679
0.999817
0.999953
1.00007
1.00017
1.00023
1.00027
1.00029
0.999311
0.999324
0.999365
0.999439
0.999543
0.999672
0.999812
0.99995
1.00007
1.00017
1.00024
1.00028
1.00029
0.999293
0.999309
0.999352
0.999429
0.999536
0.999666
0.999807
0.999946
1.00007
1.00017
1.00024
1.00028
1.0003
0.999278
0.999297
0.999343
0.999423
0.999531
0.999662
0.999803
0.999942
1.00007
1.00017
1.00024
1.00028
1.0003
0.999267
0.999289
0.999338
0.99942
0.99953
0.99966
0.999801
0.999939
1.00006
1.00016
1.00024
1.00028
1.00031
0.999261
0.999286
0.999338
0.999421
0.999531
0.999662
0.999801
0.999938
1.00006
1.00016
1.00024
1.00028
1.00031
0.99926
0.999287
0.999341
0.999425
0.999536
0.999666
0.999804
0.99994
1.00006
1.00016
1.00024
1.00029
1.00032
0.999262
0.999291
0.999347
0.999432
0.999543
0.999672
0.999809
0.999944
1.00007
1.00017
1.00024
1.00029
1.00032
0.999266
0.999297
0.999354
0.999439
0.99955
0.999678
0.999815
0.999948
1.00007
1.00017
1.00025
1.0003
1.00033
0.99927
0.999302
0.99936
0.999445
0.999555
0.999683
0.999819
0.999952
1.00007
1.00017
1.00025
1.0003
1.00033
0.999274
0.999306
0.999364
0.999449
0.999559
0.999686
0.999821
0.999953
1.00007
1.00017
1.00025
1.0003
1.00033
0.999518
0.99956
0.99961
0.999665
0.999724
0.999786
0.999847
0.999907
0.999964
1.00002
1.00006
1.00011
1.00014
0.999492
0.999527
0.999572
0.999629
0.999695
0.999768
0.999844
0.999918
0.999986
1.00005
1.0001
1.00014
1.00017
0.999467
0.999496
0.999538
0.999596
0.999668
0.999752
0.99984
0.999927
1.00001
1.00007
1.00012
1.00016
1.00019
0.999443
0.999467
0.999506
0.999565
0.999643
0.999737
0.999837
0.999936
1.00002
1.0001
1.00015
1.00019
1.00021
0.99942
0.999438
0.999475
0.999537
0.99962
0.999722
0.999833
0.999943
1.00004
1.00012
1.00017
1.00021
1.00023
0.999396
0.999411
0.999447
0.99951
0.999599
0.999709
0.99983
0.999948
1.00005
1.00014
1.0002
1.00023
1.00025
0.999372
0.999384
0.99942
0.999486
0.99958
0.999697
0.999826
0.999952
1.00006
1.00015
1.00021
1.00025
1.00027
0.999349
0.99936
0.999396
0.999464
0.999563
0.999686
0.999821
0.999954
1.00007
1.00016
1.00023
1.00026
1.00028
0.999327
0.999337
0.999375
0.999446
0.999549
0.999677
0.999817
0.999955
1.00008
1.00017
1.00024
1.00028
1.00029
0.999305
0.999316
0.999356
0.999431
0.999537
0.999668
0.999812
0.999953
1.00008
1.00018
1.00025
1.00028
1.0003
0.999285
0.999298
0.99934
0.999418
0.999527
0.999661
0.999806
0.999949
1.00008
1.00018
1.00025
1.00029
1.00031
0.999266
0.999282
0.999327
0.999408
0.99952
0.999655
0.9998
0.999943
1.00007
1.00017
1.00025
1.00029
1.00031
0.99925
0.999269
0.999318
0.999402
0.999515
0.99965
0.999796
0.999939
1.00007
1.00017
1.00025
1.00029
1.00031
0.999239
0.999261
0.999314
0.999399
0.999513
0.999649
0.999793
0.999935
1.00006
1.00017
1.00024
1.00029
1.00032
0.999233
0.999259
0.999314
0.999401
0.999515
0.99965
0.999794
0.999934
1.00006
1.00017
1.00024
1.00029
1.00032
0.999232
0.99926
0.999317
0.999406
0.999521
0.999655
0.999797
0.999936
1.00006
1.00017
1.00025
1.0003
1.00033
0.999234
0.999265
0.999324
0.999413
0.999528
0.999661
0.999803
0.999941
1.00007
1.00017
1.00025
1.0003
1.00033
0.999239
0.999271
0.999331
0.999421
0.999536
0.999668
0.999808
0.999945
1.00007
1.00017
1.00025
1.00031
1.00034
0.999243
0.999277
0.999338
0.999428
0.999542
0.999674
0.999813
0.999949
1.00007
1.00018
1.00026
1.00031
1.00035
0.999247
0.999281
0.999342
0.999432
0.999545
0.999676
0.999815
0.99995
1.00007
1.00018
1.00026
1.00031
1.00035
0.999505
0.999549