# vtk DataFile Version 2.0
I need something to put here
ASCII

DATASET STRUCTURED_GRID
DIMENSIONS 14 20 40
POINTS 11200 float
0.650000 0.500000 0.000000
0.675000 0.500000 0.000000
0.700000 0.500000 0.000000
0.725000 0.500000 0.000000
0.750000 0.500000 0.000000
0.775000 0.500000 0.000000
0.800000 0.500000 0.000000
0.825000 0.500000 0.000000
0.850000 0.500000 0.000000
0.875000 0.500000 0.000000
0.900000 0.500000 0.000000
0.925000 0.500000 0.000000
0.950000 0.500000 0.000000
0.975000 0.500000 0.000000
0.650000 0.525000 0.000000
0.675000 0.525000 0.000000
0.700000 0.525000 0.000000
0.725000 0.525000 0.000000
0.750000 0.525000 0.000000
0.775000 0.525000 0.000000
0.800000 0.525000 0.000000
0.825000 0.525000 0.000000
0.850000 0.525000 0.000000
0.875000 0.525000 0.000000
0.900000 0.525000 0.000000
0.925000 0.525000 0.000000
0.950000 0.525000 0.000000
0.975000 0.525000 0.000000
0.650000 0.550000 0.000000
0.675000 0.550000 0.000000
0.700000 0.550000 0.000000
0.725000 0.550000 0.000000
0.750000 0.550000 0.000000
0.775000 0.550000 0.000000
0.800000 0.550000 0.000000
0.825000 0.550000 0.000000
0.850000 0.550000 0.000000
0.875000 0.550000 0.000000
0.900000 0.550000 0.000000
0.925000 0.550000 0.000000
0.950000 0.550000 0.000000
0.975000 0.550000 0.000000
0.650000 0.575000 0.000000
0.675000 0.575000 0.000000
0.700000 0.575000 0.000000
0.725000 0.575000 0.000000
0.750000 0.575000 0.000000
0.775000 0.575000 0.000000
0.800000 0.575000 0.000000
0.825000 0.575000 0.000000
0.850000 0.575000 0.000000
0.875000 0.575000 0.000000
0.900000 0.575000 0.000000
0.925000 0.575000 0.000000
0.950000 0.575000 0.000000
0.975000 0.575000 0.000000
0.650000 0.600000 0.000000
0.675000 0.600000 0.000000
0.700000 0.600000 0.000000
0.725000 0.600000 0.000000
0.750000 0.600000 0.000000
0.775000 0.600000 0.000000
0.800000 0.600000 0.000000
0.825000 0.600000 0.000000
0.850000 0.600000 0.000000
0.875000 0.600000 0.000000
0.900000 0.600000 0.000000
0.925000 0.600000 0.000000
0.950000 0.600000 0.000000
0.975000 0.600000 0.000000
0.650000 0.625000 0.000000
0.675000 0.625000 0.000000
0.700000 0.625000 0.000000
0.725000 0.625000 0.000000
0.750000 0.625000 0.000000
0.775000 0.625000 0.000000
0.800000 0.625000 0.000000
0.825000 0.625000 0.000000
0.850000 0.625000 0.000000
0.875000 0.625000 0.000000
0.900000 0.625000 0.000000
0.925000 0.625000 0.000000
0.950000 0.625000 0.000000
0.975000 0.625000 0.000000
0.650000 0.650000 0.000000
0.675000 0.650000 0.000000
0.700000 0.650000 0.000000
0.725000 0.650000 0.000000
0.750000 0.650000 0.000000
0.775000 0.650000 0.000000
0.800000 0.650000 0.000000
0.825000 0.650000 0.000000
0.850000 0.650000 0.000000
0.875000 0.650000 0.000000
0.900000 0.650000 0.000000
0.925000 0.650000 0.000000
0.950000 0.650000 0.000000
0.975000 0.650000 0.000000
0.650000 0.675000 0.000000
0.675000 0.675000 0.000000
0.700000 0.675000 0.000000
0.725000 0.675000 0.000000
0.750000 0.675000 0.000000
0.775000 0.675000 0.000000
0.800000 0.675000 0.000000
0.825000 0.675000 0.000000
0.850000 0.675000 0.000000
0.875000 0.675000 0.000000
0.900000 0.675000 0.000000
0.925000 0.675000 0.000000
0.950000 0.675000 0.000000
0.975000 0.675000 0.000000
0.650000 0.700000 0.000000
0.675000 0.700000 0.000000
0.700000 0.700000 0.000000
0.725000 0.700000 0.000000
0.750000 0.700000 0.000000
0.775000 0.700000 0.000000
0.800000 0.700000 0.000000
0.825000 0.700000 0.000000
0.850000 0.700000 0.000000
0.875000 0.700000 0.000000
0.900000 0.700000 0.000000
0.925000 0.700000 0.000000
0.950000 0.700000 0.000000
0.975000 0.700000 0.000000
0.650000 0.725000 0.000000
0.675000 0.725000 0.000000
0.700000 0.725000 0.000000
0.725000 0.725000 0.000000
0.750000 0.725000 0.000000
0.775000 0.725000 0.000000
0.800000 0.725000 0.000000
0.825000 0.725000 0.000000
0.850000 0.725000 0.000000
0.875000 0.725000 0.000000
0.900000 0.725000 0.000000
0.925000 0.725000 0.000000
0.950000 0.725000 0.000000
0.975000 0.725000 0.000000
0.650000 0.750000 0.000000
0.675000 0.750000 0.000000
0.700000 0.750000 0.000000
0.725000 0.750000 0.000000
0.750000 0.750000 0.000000
0.775000 0.750000 0.000000
0.800000 0.750000 0.000000
0.825000 0.750000 0.000000
0.850000 0.750000 0.000000
0.875000 0.750000 0.000000
0.900000 0.750000 0.000000
0.925000 0.750000 0.000000
0.950000 0.750000 0.000000
0.975000 0.750000 0.000000
0.650000 0.775000 0.000000
0.675000 0.775000 0.000000
0.700000 0.775000 0.000000
0.725000 0.775000 0.000000
0.750000 0.775000 0.000000
0.775000 0.775000 0.000000
0.800000 0.775000 0.000000
0.825000 0.775000 0.000000
0.850000 0.775000 0.000000
0.875000 0.775000 0.000000
0.900000 0.775000 0.000000
0.925000 0.775000 0.000000
0.950000 0.775000 0.000000
0.975000 0.775000 0.000000
0.650000 0.800000 0.000000
0.675000 0.800000 0.000000
0.700000 0.800000 0.000000
0.725000 0.800000 0.000000
0.750000 0.800000 0.000000
0.775000 0.800000 0.000000
0.800000 0.800000 0.000000
0.825000 0.800000 0.000000
0.850000 0.800000 0.000000
0.875000 0.800000 0.000000
0.900000 0.800000 0.000000
0.925000 0.800000 0.000000
0.950000 0.800000 0.000000
0.975000 0.800000 0.000000
0.650000 0.825000 0.000000
0.675000 0.825000 0.000000
0.700000 0.825000 0.000000
0.725000 0.825000 0.000000
0.750000 0.825000 0.000000
0.775000 0.825000 0.000000
0.800000 0.825000 0.000000
0.825000 0.825000 0.000000
0.850000 0.825000 0.000000
0.875000 0.825000 0.000000
0.900000 0.825000 0.000000
0.925000 0.825000 0.000000
0.950000 0.825000 0.000000
0.975000 0.825000 0.000000
0.650000 0.850000 0.000000
0.675000 0.850000 0.000000
0.700000 0.850000 0.000000
0.725000 0.850000 0.000000
0.750000 0.850000 0.000000
0.775000 0.850000 0.000000
0.800000 0.850000 0.000000
0.825000 0.850000 0.000000
0.850000 0.850000 0.000000
0.875000 0.850000 0.000000
0.900000 0.850000 0.000000
0.925000 0.850000 0.000000
0.950000 0.850000 0.000000
0.975000 0.850000 0.000000
0.650000 0.875000 0.000000
0.675000 0.875000 0.000000
0.700000 0.875000 0.000000
0.725000 0.875000 0.000000
0.750000 0.875000 0.000000
0.775000 0.875000 0.000000
0.800000 0.875000 0.000000
0.825000 0.875000 0.000000
0.850000 0.875000 0.000000
0.875000 0.875000 0.000000
0.900000 0.875000 0.000000
0.925000 0.875000 0.000000
0.950000 0.875000 0.000000
0.975000 0.875000 0.000000
0.650000 0.900000 0.000000
0.675000 0.900000 0.000000
0.700000 0.900000 0.000000
0.725000 0.900000 0.000000
0.750000 0.900000 0.000000
0.775000 0.900000 0.000000
0.800000 0.900000 0.000000
0.825000 0.900000 0.000000
0.850000 0.900000 0.000000
0.875000 0.900000 0.000000
0.900000 0.900000 0.000000
0.925000 0.900000 0.000000
0.950000 0.900000 0.000000
0.975000 0.900000 0.000000
0.650000 0.925000 0.000000
0.675000 0.925000 0.000000
0.700000 0.925000 0.000000
0.725000 0.925000 0.000000
0.750000 0.925000 0.000000
0.775000 0.925000 0.000000
0.800000 0.925000 0.000000
0.825000 0.925000 0.000000
0.850000 0.925000 0.000000
0.875000 0.925000 0.000000
0.900000 0.925000 0.000000
0.925000 0.925000 0.000000
0.950000 0.925000 0.000000
0.975000 0.925000 0.000000
0.650000 0.950000 0.000000
0.675000 0.950000 0.000000
0.700000 0.950000 0.000000
0.725000 0.950000 0.000000
0.750000 0.950000 0.000000
0.775000 0.950000 0.000000
0.800000 0.950000 0.000000
0.825000 0.950000 0.000000
0.850000 0.950000 0.000000
0.875000 0.950000 0.000000
0.900000 0.950000 0.000000
0.925000 0.950000 0.000000
0.950000 0.950000 0.000000
0.975000 0.950000 0.000000
0.650000 0.975000 0.000000
0.675000 0.975000 0.000000
0.700000 0.975000 0.000000
0.725000 0.975000 0.000000
0.750000 0.975000 0.000000
0.775000 0.975000 0.000000
0.800000 0.975000 0.000000
0.825000 0.975000 0.000000
0.850000 0.975000 0.000000
0.875000 0.975000 0.000000
0.900000 0.975000 0.000000
0.925000 0.975000 0.000000
0.950000 0.975000 0.000000
0.975000 0.975000 0.000000
0.650000 0.500000 0.025000
0.675000 0.500000 0.025000
0.700000 0.500000 0.025000
0.725000 0.500000 0.025000
0.750000 0.500000 0.025000
0.775000 0.500000 0.025000
0.800000 0.500000 0.025000
0.825000 0.500000 0.025000
0.850000 0.500000 0.025000
0.875000 0.500000 0.025000
0.900000 0.500000 0.025000
0.925000 0.500000 0.025000
0.950000 0.500000 0.025000
0.975000 0.500000 0.025000
0.650000 0.525000 0.025000
0.675000 0.525000 0.025000
0.700000 0.525000 0.025000
0.725000 0.525000 0.025000
0.750000 0.525000 0.025000
0.775000 0.525000 0.025000
0.800000 0.525000 0.025000
0.825000 0.525000 0.025000
0.850000 0.525000 0.025000
0.875000 0.525000 0.025000
0.900000 0.525000 0.025000
0.925000 0.525000 0.025000
0.950000 0.525000 0.025000
0.975000 0.525000 0.025000
0.650000 0.550000 0.025000
0.675000 0.550000 0.025000
0.700000 0.550000 0.025000
0.725000 0.550000 0.025000
0.750000 0.550000 0.025000
0.775000 0.550000 0.025000
0.800000 0.550000 0.025000
0.825000 0.550000 0.025000
0.850000 0.550000 0.025000
0.875000 0.550000 0.025000
0.900000 0.550000 0.025000
0.925000 0.550000 0.025000
0.950000 0.550000 0.025000
0.975000 0.550000 0.025000
0.650000 0.575000 0.025000
0.675000 0.575000 0.025000
0.700000 0.575000 0.025000
0.725000 0.575000 0.025000
0.750000 0.575000 0.025000
0.775000 0.575000 0.025000
0.800000 0.575000 0.025000
0.825000 0.575000 0.025000
0.850000 0.575000 0.025000
0.875000 0.575000 0.025000
0.900000 0.575000 0.025000
0.925000 0.575000 0.025000
0.950000 0.575000 0.025000
0.975000 0.575000 0.025000
0.650000 0.600000 0.025000
0.675000 0.600000 0.025000
0.700000 0.600000 0.025000
0.725000 0.600000 0.025000
0.750000 0.600000 0.025000
0.775000 0.600000 0.025000
0.800000 0.600000 0.025000
0.825000 0.600000 0.025000
0.850000 0.600000 0.025000
0.875000 0.600000 0.025000
0.900000 0.600000 0.025000
0.925000 0.600000 0.025000
0.950000 0.600000 0.025000
0.975000 0.600000 0.025000
0.650000 0.625000 0.025000
0.675000 0.625000 0.025000
0.700000 0.625000 0.025000
0.725000 0.625000 0.025000
0.750000 0.625000 0.025000
0.775000 0.625000 0.025000
0.800000 0.625000 0.025000
0.825000 0.625000 0.025000
0.850000 0.625000 0.025000
0.875000 0.625000 0.025000
0.900000 0.625000 0.025000
0.925000 0.625000 0.025000
0.950000 0.625000 0.025000
0.975000 0.625000 0.025000
0.650000 0.650000 0.025000
[...]
CELL_DATA 9633
SCALARS density float 1
LOOKUP_TABLE default
0.999869
0.999876
0.999881
0.999885
0.999888
0.99989
0.999893
0.999897
0.999901
0.999906
0.99991
0.999913
0.999934
0.999875
0.999883
0.999888
0.999893
0.999897
0.999899
0.999901
0.999905
0.999909
0.999918
0.999925
0.999935
0.999954
0.999877
0.999885
0.999904
0.999906
0.999894
0.999895
0.999899
0.999903
0.99991
0.999906
0.999918
0.999943
0.999953
0.999878
0.999887
0.999893
0.999897
0.999901
0.999904
0.999908
0.999912
0.999918
0.999929
0.999939
0.999947
0.999952
0.999879
0.999886
0.999892
0.999898
0.999902
0.999906
0.99991
0.999915
0.999923
0.999932
0.999942
0.999949
0.999952
0.999879
0.999886
0.999893
0.999899
0.999904
0.999908
0.999912
0.999917
0.999924
0.999933
0.999942
0.999949
0.999952
0.999878
0.999885
0.999892
0.999898
0.999903
0.999907
0.999912
0.999917
0.999924
0.999932
0.999941
0.999947
0.999953
0.999878
0.999885
0.999891
0.999897
0.999903
0.999907
0.999912
0.999916
0.999922
0.999927
0.999934
0.999947
0.999951
0.999878
0.999885
0.999891
0.999898
0.999903
0.999908
0.999912
0.999915
0.999919
0.999921
0.999919
0.999922
0.999971
0.999879
0.999886
0.999893
0.999902
0.999908
0.999912
0.999914
0.999914
0.999915
0.999912
0.999899
0.999867
0.999819
0.999878
0.999885
0.999892
0.999901
0.999908
0.999912
0.999914
0.999914
0.999913
0.999905
0.999883
0.99984
0.999844
0.999877
0.999884
0.999891
0.999899
0.999906
0.999912
0.999915
0.999915
0.999913
0.999902
0.999877
0.999841
0.999841
0.999876
0.999884
0.999891
0.999899
0.999906
0.999912
0.999916
0.999918
0.999916
0.999905
0.999879
0.999842
0.999839
0.999879
0.999887
0.999894
0.999902
0.999909
0.999915
0.999919
0.999921
0.99992
0.999912
0.999888
0.999844
0.999841
0.999886
0.999892
0.999897
0.999904
0.99991
0.999916
0.999921
0.999923
0.999924
0.999919
0.999904
0.999868
0.999823
0.999905
0.999904
0.999901
0.999904
0.99991
0.999916
0.999921
0.999924
0.999927
0.999926
0.999922
0.999923
0.999975
0.99995
0.999916
0.999902
0.999903
0.999908
0.999914
0.99992
0.999924
0.999927
0.999929
0.999934
0.999949
0.999954
1.00001
0.999922
0.999902
0.999901
0.999906
0.999912
0.999917
0.999922
0.999926
0.999931
0.999938
0.999945
0.999954
1.00001
0.999923
0.9999
0.999899
0.999903
0.999908
0.999914
0.999918
0.999922
0.999927
0.999934
0.99994
0.999943
0.999886
0.999893
0.9999
0.999905
0.999909
0.999914
0.999918
0.999924
0.999928
0.999932
0.999934
0.999939
0.99997
0.999884
0.999891
0.999899
0.999904
0.999907
0.999911
0.999915
0.99992
0.999927
0.999931
0.999938
0.99995
0.999972
0.999884
0.999894
0.999902
0.999906
0.999908
0.999909
0.999913
0.999919
0.999924
0.999929
0.999938
0.99995
0.999967
0.999884
0.999891
0.999899
0.999903
0.999906
0.999911
0.999916
0.999922
0.999929
0.999936
0.999945
0.999954
0.999964
0.999884
0.999891
0.999898
0.999903
0.999907
0.999912
0.999917
0.999924
0.999931
0.999939
0.999947
0.999955
0.999964
0.999884
0.999891
0.999897
0.999903
0.999907
0.999912
0.999918
0.999924
0.999931
0.999938
0.999946
0.999955
0.999964
0.999883
0.99989
0.999897
0.999902
0.999907
0.999912
0.999917
0.999923
0.999929
0.999934
0.999939
0.99995
0.999965
0.999883
0.99989
0.999896
0.999902
0.999907
0.999912
0.999917
0.999922
0.999926
0.999929
0.999928
0.999926
0.999961
0.999882
0.999889
0.999895
0.999902
0.999907
0.999911
0.999916
0.99992
0.999922
0.999921
0.999913
0.999888
0.999865
0.999881
0.999889
0.999896
0.999902
0.999907
0.999912
0.999915
0.999918
0.999918
0.999912
0.999893
0.999842
0.99966
0.99988
0.999888
0.999895
0.999901
0.999907
0.999911
0.999915
0.999916
0.999915
0.999905
0.999878
0.999801
0.999538
0.999879
0.999887
0.999894
0.999901
0.999906
0.999911
0.999915
0.999916
0.999914
0.999902
0.999867
0.999772
0.999527
0.999879
0.999887
0.999894
0.9999
0.999906
0.999911
0.999915
0.999917
0.999915
0.999903
0.999867
0.999771
0.999523
0.999881
0.999889
0.999895
0.999902
0.999907
0.999913
0.999917
0.999919
0.999918
0.999907
0.999878
0.999796
0.99953
0.999885
0.999891
0.999897
0.999903
0.999908
0.999913
0.999918
0.999921
0.999921
0.999914
0.999893
0.999835
0.999626
0.999893
0.999896
0.999899
0.999903
0.999908
0.999913
0.999918
0.999921
0.999923
0.99992
0.999911
0.99988
0.999837
0.999905
0.999904
0.999902
0.999903
0.999907
0.999912
0.999917
0.999921
0.999923
0.999923
0.999918
0.999917
0.999967
0.999947
0.999915
0.999902
0.999901
0.999905
0.99991
0.999915
0.99992
0.999923
0.999924
0.999928
0.999943
0.999973
0.999949
0.999915
0.9999
0.999899
0.999904
0.999909
0.999914
0.999918
0.999922
0.999926
0.999932
0.999945
0.999959
0.999894
0.999902
0.999909
0.999915
0.999919
0.999925
0.999931
0.999937
0.999942
0.999945
0.999946
0.999952
0.999982
0.999892
0.9999
0.999907
0.999912
0.999916
0.999921
0.999927
0.999934
0.99994
0.999944
0.99995
0.999961
0.999984
0.999891
0.999899
0.999906
0.999911
0.999915
0.99992
0.999925
0.999932
0.999938
0.999944
0.999951
0.999961
0.999978
0.99989
0.999898
0.999905
0.99991
0.999914
0.999919
0.999925
0.999933
0.99994
0.999946
0.999954
0.999962
0.999974
0.99989
0.999897
0.999904
0.999909
0.999913
0.999919
0.999926
0.999933
0.999941
0.999947
0.999955
0.999962
0.999973
0.999889
0.999897
0.999903
0.999908
0.999913
0.999919
0.999925
0.999933
0.999941
0.999947
0.999954
0.999962
0.999973
0.999888
0.999896
0.999902
0.999908
0.999912
0.999918
0.999925
0.999932
0.999939
0.999946
0.999953
0.99996
0.999974
0.999887
0.999895
0.999901
0.999907
0.999912
0.999917
0.999923
0.99993
0.999936
0.999941
0.999948
0.999963
0.999976
0.999886
0.999893
0.9999
0.999906
0.999911
0.999916
0.999921
0.999927
0.999932
0.999935
0.999938
0.999951
1.00001
0.999885
0.999892
0.999899
0.999905
0.99991
0.999915
0.99992
0.999924
0.999928
0.999927
0.999924
0.999918
0.999927
0.999883
0.999891
0.999897
0.999903
0.999908
0.999913
0.999918
0.999922
0.999924
0.999921
0.999913
0.999904
0.999956
0.999882
0.99989
0.999896
0.999902
0.999907
0.999912
0.999917
0.99992
0.999921
0.999917
0.999909
0.999908
0.999955
0.999882
0.999889
0.999896
0.999902
0.999907
0.999912
0.999917
0.99992
0.999921
0.999917
0.999909
0.999908
0.999957
0.999882
0.999889
0.999896
0.999902
0.999907
0.999913
0.999918
0.999921
0.999923
0.999921
0.999913
0.999907
0.999958
0.999883
0.99989
0.999896
0.999902
0.999908
0.999913
0.999918
0.999922
0.999925
0.999925
0.999924
0.999919
0.999932
0.999886
0.999892
0.999897
0.999902
0.999908
0.999913
0.999918
0.999923
0.999926
0.999928
0.999934
0.999959
1.00002
0.999891
0.999894
0.999898
0.999902
0.999907
0.999912
0.999917
0.999922
0.999926
0.999928
0.999933
0.999945
0.999985
0.999901
0.9999
0.999898
0.9999
0.999905
0.99991
0.999915
0.99992
0.999924
0.999927
0.99993
0.999943
0.999979
0.99989
0.999891
0.999893
0.999896
0.999902
0.999907
0.999912
0.999917
0.999921
0.999925
0.999928
0.999934
0.999969
0.999899
0.999908
0.999915
0.999922
0.999926
0.999932
0.999939
0.999946
0.999952
0.999954
0.999955
0.999959
0.999989
0.999898
0.999906
0.999913
0.999919
0.999924
0.999929
0.999936
0.999944
0.99995
0.999954
0.99996
0.999969
0.999995
0.999897
0.999905
0.999912
0.999918
0.999922
0.999928
0.999935
0.999942
0.999949
0.999955
0.999961
0.999971
0.999988
0.999896
0.999904
0.999911
0.999916
0.999921
0.999927
0.999934
0.999942
0.99995
0.999956
0.999963
0.99997
0.999983
0.999895
0.999903
0.99991
0.999915
0.99992
0.999926
0.999933
0.999942
0.99995
0.999956
0.999962
0.999969
0.999981
0.999894
0.999902
0.999909
0.999914
0.999919
0.999925
0.999933
0.999942
0.99995
0.999956
0.999962
0.999969
0.99998
0.999893
0.999901
0.999907
0.999913
0.999918
0.999924
0.999932
0.99994
0.999949
0.999955
0.999961
0.999969
0.999981
0.999892
0.999899
0.999906
0.999912
0.999917
0.999923
0.99993
0.999938
0.999946
0.999953
0.999961
0.999968
0.999985
0.99989
0.999898
0.999904
0.99991
0.999915
0.999921
0.999927
0.999935
0.999942
0.999948
0.999955
0.999971
0.999988
0.999888
0.999896
0.999902
0.999908
0.999913
0.999918
0.999925
0.999932
0.999938
0.999941
0.999945
0.99995
0.999987
0.999886
0.999894
0.9999
0.999906
0.999911
0.999916
0.999922
0.999928
0.999933
0.999936
0.999939
0.999953
0.999991
0.999885
0.999892
0.999899
0.999904
0.999909
0.999915
0.99992
0.999926
0.999931
0.999934
0.999939
0.999953
0.999996
0.999883
0.999891
0.999897
0.999903
0.999908
0.999914
0.99992
0.999925
0.99993
0.999933
0.999939
0.999954
1
0.999883
0.99989
0.999897
0.999903
0.999908
0.999914
0.99992
0.999926
0.99993
0.999934
0.99994
0.999956
1
0.999882
0.999889
0.999896
0.999902
0.999908
0.999914
0.99992
0.999926
0.999931
0.999935
0.999941
0.999959
1.00001
0.99988
0.999888
0.999895
0.999902
0.999908
0.999914
0.999921
0.999927
0.999932
0.999936
0.999944
0.999972
1.00004
0.999878
0.999887
0.999894
0.999901
0.999908
0.999914
0.99992
0.999926
0.999931
0.999935
0.999937
0.999933
0.999922
0.999874
0.999882
0.999892
0.999899
0.999906
0.999912
0.999918
0.999924
0.999929
0.999932
0.999928
0.999913
0.999949
0.999832
0.999869
0.999884
0.999891
0.999897
0.999903
0.999908
0.999913
0.999918
0.99992
0.999916
0.999908
0.999909
0.999903
0.999913
0.99992
0.999927
0.999932
0.999938
0.999945
0.999953
0.999959
0.99996
0.99996
0.999964
0.999993
0.999902
0.999911
0.999919
0.999925
0.99993
0.999936
0.999943
0.999951
0.999957
0.999961
0.999965
0.999974
0.999999
0.999901
0.99991
0.999918
0.999923
0.999928
0.999934
0.999941
0.99995
0.999957
0.999962
0.999967
0.999975
0.999995
0.9999
0.999909
0.999916
0.999922
0.999927
0.999933
0.99994
0.999949
0.999957
0.999962
0.999968
0.999978
0.999991
0.999899
0.999908
0.999915
0.999921
0.999926
0.999932
0.99994
0.999949
0.999956
0.999962
0.999967
0.999973
0.999988
0.999898
0.999907
0.999914
0.999919
0.999924
0.999931
0.999939
0.999948
0.999956
0.999962
0.999967
0.999974
0.999986
0.999897
0.999905
0.999912
0.999918
0.999923
0.999929
0.999937
0.999947
0.999956
0.999962
0.999968
0.999974
0.999987
0.999895
0.999904
0.99991
0.999916
0.999921
0.999927
0.999935
0.999945
0.999954
0.999961
0.999967
0.999974
0.999987
0.999894
0.999902
0.999908
0.999914
0.999919
0.999925
0.999933
0.999942
0.99995
0.999957
0.999965
0.999973
0.999989
0.999891
0.999899
0.999906
0.999911
0.999916
0.999922
0.999929
0.999938
0.999946
0.999952
0.999958
0.999971
0.999994
0.999889
0.999897
0.999903
0.999909
0.999913
0.999919
0.999926
0.999934
0.999942
0.999948
0.999957
0.99997
0.999996
0.999887
0.999894
0.999901
0.999906
0.999911
0.999917
0.999924
0.999932
0.999939
0.999946
0.999956
0.999972
1
0.999885
0.999893
0.999899
0.999905
0.99991
0.999916
0.999923
0.99993
0.999937
0.999944
0.999955
0.999973
1
0.999883
0.999891
0.999898
0.999904
0.999909
0.999916
0.999923
0.99993
0.999937
0.999943
0.999952
0.999973
1.00001
0.999881
0.999889
0.999896
0.999903
0.999909
0.999916
0.999923
0.99993
0.999937
0.999942
0.999945
0.999956
1.00001
0.999876
0.999885
0.999894
0.999902
0.99991
0.999917
0.999924
0.999931
0.999938
0.999943
0.999945
0.999933
0.999931
0.999864
0.999879
0.999894
0.999904
0.999912
0.999919
0.999927
0.999934
0.999941
0.999945
0.999941
0.999907
0.999741
0.999836
0.999878
0.999898
0.999909
0.999918
0.999926
0.999934
0.999942
0.999949
0.999952
0.999946
0.999899
0.999648
0.999824
0.999889
0.999913
0.999926
0.999938
0.999948
0.999958
0.999967
0.999976
0.99998
0.99997
0.999919
0.999748
0.999906
0.999916
0.999925
0.999931
0.999936
0.999942
0.99995
0.999958
0.999964
0.999965
0.999963
0.999965
0.999993
0.999906
0.999915
0.999923
0.99993
0.999935
0.999941
0.999948
0.999956
0.999962
0.999965
0.999967
0.999973
1
0.999905
0.999914
0.999922
0.999928
0.999933
0.999939
0.999947
0.999955
0.999962
0.999965
0.999968
0.999976
0.999994
0.999904
0.999913
0.999921
0.999927
0.999932
0.999938
0.999946
0.999954
0.999961
0.999965
0.999968
0.999978
1.00001
0.999903
0.999912
0.99992
0.999926
0.99993
0.999937
0.999945
0.999954
0.999961
0.999964
0.999968
0.999974
0.999988
0.999902
0.999911
0.999918
0.999924
0.999929
0.999935
0.999943
0.999953
0.999961
0.999965
0.999967
0.999972
0.999989
0.9999
0.999909
0.999916
0.999922
0.999927
0.999933
0.999942
0.999952
0.99996
0.999966
0.999972
0.999977
0.999988
0.999899
0.999907
0.999914
0.99992
0.999925
0.999931
0.99994
0.99995
0.999959
0.999966
0.999971
0.999978
0.999988
0.999897
0.999905
0.999912
0.999917
0.999922
0.999928
0.999937
0.999946
0.999956
0.999963
0.99997
0.999977
0.999992
0.999894
0.999902
0.999909
0.999914
0.999919
0.999925
0.999933
0.999943
0.999952
0.999959
0.999967
0.999978
0.999998
0.999892
0.999899
0.999906
0.999911
0.999916
0.999922
0.99993
0.999939
0.999948
0.999956
0.999965
0.999978
1
0.999889
0.999897
0.999903
0.999908
0.999913
0.999919
0.999927
0.999936
0.999945
0.999954
0.999964
0.999979
1
0.999887
0.999894
0.999901
0.999906
0.999911
0.999918
0.999925
0.999934
0.999944
0.999953
0.999965
0.999981
1
0.999884
0.999892
0.999899
0.999905
0.999911
0.999917
0.999925
0.999934
0.999943
0.999953
0.999966
0.999983
1.00001
0.999881
0.99989
0.999897
0.999904
0.99991
0.999917
0.999925
0.999934
0.999943
0.999952
0.999965
0.99999
1.00002
0.999877
0.999886
0.999895
0.999903
0.99991
0.999917
0.999925
0.999934
0.999942
0.999951
0.999961
0.999984
1.00005
0.999871
0.999883
0.999893
0.999902
0.99991
0.999918
0.999926
0.999934
0.999942
0.999948
0.999953
0.999956
0.999969
0.999863
0.999877
0.999892
0.999904
0.999913
0.999921
0.999929
0.999937
0.999945
0.99995
0.99995
0.999945
1
0.999831
0.999873
0.999895
0.999907
0.999917
0.999926
0.999935
0.999943
0.999951
0.999957
0.999957
0.999958
0.999984
0.999909
0.99992
0.999929
0.999935
0.999941
0.999947
0.999954
0.999962
0.999968
0.999967
0.999963
0.999958
0.999989
0.999908
0.999919
0.999928
0.999934
0.999939
0.999945
0.999953
0.999961
0.999966
0.999966
0.999963
0.999966
0.999994
0.999908
0.999918
0.999927
0.999933
0.999938
0.999944
0.999951
0.999959
0.999965
0.999965
0.999963
0.999966
1
0.999907
0.999917
0.999925
0.999932
0.999936
0.999942
0.99995
0.999958
0.999964
0.999964
0.999962
0.999965
1.00001
0.999906
0.999916
0.999924
0.99993
0.999935
0.999941
0.999949
0.999957
0.999963
0.999964
0.999961
0.999964
0.999991
0.999905
0.999914
0.999922
0.999928
0.999933
0.999939
0.999947
0.999956
0.999963
0.999965
0.999964
0.99996
0.999981
0.999903
0.999913
0.99992
0.999926
0.999931
0.999937
0.999945
0.999955
0.999963
0.999967
0.999971
0.999981
0.999987
0.999902
0.999911
0.999918
0.999924
0.999928
0.999935
0.999943
0.999953
0.999961
0.999967
0.999973
0.999976
0.999988
0.9999
0.999908
0.999915
0.999921
0.999925
0.999932
0.99994
0.999949
0.999959
0.999965
0.999971
0.999977
0.999986
0.999897
0.999905
0.999912
0.999918
0.999922
0.999928
0.999936
0.999946
0.999955
0.999962
0.999969
0.999976
0.999989
0.999894
0.999902
0.999909
0.999914
0.999918
0.999924
0.999932
0.999942
0.999951
0.999959
0.999967
0.999977
0.99999
0.999891
0.999899
0.999905
0.999911
0.999915
0.999921
0.999929
0.999939
0.999949
0.999957
0.999967
0.999978
0.999994
0.999888
0.999896
0.999903
0.999908
0.999913
0.999919
0.999927
0.999937
0.999947
0.999957
0.999968
0.99998
0.999997
0.999886
0.999894
0.9999
0.999906
0.999912
0.999918
0.999927
0.999936
0.999947
0.999957
0.999969
0.999984
1
0.999883
0.999891
0.999898
0.999905
0.999911
0.999918
0.999926
0.999936
0.999946
0.999957
0.999971
0.999986
1.00001
0.999879
0.999888
0.999896
0.999903
0.999909
0.999917
0.999925
0.999935
0.999944
0.999955
0.999968
0.999991
1.00002
0.999874
0.999883
0.999893
0.999901
0.999908
0.999916
0.999924
0.999933
0.999942
0.99995
0.999959
0.99997
1.00001
0.999866
0.999879
0.999889
0.999898
0.999907
0.999915
0.999923
0.999931
0.999939
0.999947
0.999954
0.999973
1.00001
0.999853
0.999869
0.999885
0.999895
0.999905
0.999913
0.99992
0.999928
0.999937
0.999945
0.999955
0.999967
1
0.999912
0.999923
0.999933
0.999941
0.999946
0.999953
0.99996
0.999969
0.999973
0.999969
0.999958
0.999944
0.999946
0.999911
0.999923
0.999932
0.99994
0.999945
0.999951
0.999959
0.999967
0.999971
0.999967
0.999955
0.999933
0.999933
0.999911
0.999922
0.999931
0.999939
0.999944
0.99995
0.999957
0.999965
0.999969
0.999965
0.999951
0.99993
0.999924
0.99991
0.999921
0.99993
0.999937
0.999942
0.999948
0.999956
0.999964
0.999968
0.999964
0.999949
0.99993
0.999929
0.999909
0.99992
0.999929
0.999935
0.99994
0.999946
0.999954
0.999963
0.999967
0.999964
0.999951
0.999924
0.999915
0.999908
0.999918
0.999927
0.999933
0.999938
0.999944
0.999952
0.999961
0.999967
0.999965
0.999957
0.999936
0.999902
0.999907
0.999917
0.999925
0.999931
0.999936
0.999942
0.99995
0.999959
0.999966
0.999967
0.999964
0.999967
1.00001
0.999905
0.999915
0.999923
0.999929
0.999933
0.999939
0.999947
0.999956
0.999963
0.999966
0.999969
0.999979
0.999986
0.999903
0.999912
0.99992
0.999925
0.99993
0.999936
0.999944
0.999953
0.99996
0.999965
0.99997
0.999974
0.999985
0.9999
0.999909
0.999916
0.999922
0.999926
0.999932
0.999939
0.999949
0.999957
0.999963
0.999969
0.999975
0.999985
0.999897
0.999905
0.999912
0.999918
0.999922
0.999928
0.999935
0.999945
0.999954
0.999961
0.999967
0.999975
0.999986
0.999894
0.999902
0.999909
0.999914
0.999918
0.999924
0.999932
0.999942
0.999951
0.999959
0.999967
0.999976
0.99999
0.999891
0.999899
0.999905
0.999911
0.999916
0.999922
0.99993
0.99994
0.999949
0.999958
0.999967
0.999978
0.999995
0.999888
0.999896
0.999903
0.999909
0.999914
0.99992
0.999929
0.999939
0.999949
0.999958
0.999969
0.999982
1
0.999885
0.999893
0.9999
0.999906
0.999912
0.999919
0.999927
0.999937
0.999948
0.999959
0.99997
0.999984
1
0.999881
0.999889
0.999897
0.999903
0.99991
0.999917
0.999925
0.999935
0.999946
0.999956
0.999969
0.999983
1
0.999876
0.999885
0.999893
0.9999
0.999907
0.999914
0.999922
0.999932
0.999941
0.999951
0.999962
0.999979
1
0.99987
0.999879
0.999888
0.999896
0.999904
0.999911
0.999919
0.999928
0.999937
0.999947
0.999959
0.999975
1
0.999865
0.999874
0.999884
0.999893
0.999901
0.999908
0.999916
0.999923
0.999933
0.999944
0.999956
0.999972
0.999986
0.999915
0.999928
0.999938
0.999947
0.999953
0.99996
0.999969
0.999977
0.99998
0.999974
0.999953
0.99991
0.999813
0.999915
0.999927
0.999938
0.999946
0.999952
0.999959
0.999967
0.999975
0.999979
0.999971
0.999948
0.999889
0.999704
0.999914
0.999926
0.999937
0.999945
0.99995
0.999957
0.999965
0.999973
0.999977
0.999969
0.999942
0.999866
0.999649
0.999914
0.999925
0.999935
0.999943
0.999948
0.999955
0.999963
0.999972
0.999975
0.999968
0.99994
0.999859
0.999631
0.999913
0.999924
0.999934
0.999941
0.999946
0.999953
0.999961
0.99997
0.999974
0.999967
0.999942
0.99987
0.999637
0.999911
0.999923
0.999932
0.999939
0.999944
0.999951
0.999959
0.999967
0.999972
0.999967
0.999948
0.999895
0.999721
0.99991
0.999921
0.99993
0.999937
0.999942
0.999948
0.999956
0.999965
0.99997
0.999968
0.999957
0.999925
0.999886
0.999908
0.999919
0.999927
0.999934
0.999939
0.999945
0.999952
0.999961
0.999967
0.999966
0.999958
0.999951
0.999983
0.999906
0.999916
0.999924
0.99993
0.999935
0.999941
0.999948
0.999957
0.999963
0.999964
0.999964
0.999969
0.999986
0.999903
0.999913
0.999921
0.999926
0.999931
0.999936
0.999944
0.999952
0.999959
0.999963
0.999966
0.999972
0.999985
0.9999
0.999909
0.999916
0.999922
0.999926
0.999932
0.999939
0.999948
0.999956
0.999961
0.999965
0.999971
0.999985
0.999897
0.999905
0.999912
0.999918
0.999922
0.999928
0.999935
0.999944
0.999953
0.999959
0.999964
0.999972
0.999989
0.999893
0.999902
0.999909
0.999914
0.999919
0.999925
0.999933
0.999942
0.999951
0.999957
0.999964
0.999974
0.999995
0.99989
0.999898
0.999905
0.999911
0.999916
0.999923
0.999931
0.999941
0.99995
0.999957
0.999964
0.999977
1
0.999887
0.999895
0.999902
0.999908
0.999914
0.99992
0.999929
0.999939
0.999949
0.999958
0.99997
0.999981
0.999999
0.999882
0.999891
0.999898
0.999904
0.99991
0.999917
0.999926
0.999935
0.999946
0.999956
0.999967
0.99998
0.999998
0.999878
0.999886
0.999893
0.9999
0.999906
0.999913
0.999921
0.999931
0.999941
0.999951
0.999963
0.999977
0.999995
0.999873
0.999881
0.999888
0.999895
0.999902
0.999909
0.999917
0.999925
0.999935
0.999946
0.999959
0.999973
0.999989
0.999869
0.999877
0.999884
0.999892
0.999899
0.999906
0.999913
0.99992
0.999931
0.999943
0.999956
0.999968
0.999976
0.999918
0.999932
0.999944
0.999953
0.999961
0.999969
0.999978
0.999988
0.999993
0.999989
0.999978
0.999966
0.999989
0.999918
0.999931
0.999943
0.999952
0.999959
0.999967
0.999976
0.999986
0.99999
0.999987
0.999975
0.999963
0.999997
0.999917
0.999931
0.999942