# vtk DataFile Version 2.0
I need something to put here
ASCII

DATASET STRUCTURED_GRID
DIMENSIONS 14 21 40
POINTS 11760 float
0.325000 0.000000 0.000000
0.350000 0.000000 0.000000
0.375000 0.000000 0.000000
0.400000 0.000000 0.000000
0.425000 0.000000 0.000000
0.450000 0.000000 0.000000
0.475000 0.000000 0.000000
0.500000 0.000000 0.000000
0.525000 0.000000 0.000000
0.550000 0.000000 0.000000
0.575000 0.000000 0.000000
0.600000 0.000000 0.000000
0.625000 0.000000 0.000000
0.650000 0.000000 0.000000
0.325000 0.025000 0.000000
0.350000 0.025000 0.000000
0.375000 0.025000 0.000000
0.400000 0.025000 0.000000
0.425000 0.025000 0.000000
0.450000 0.025000 0.000000
0.475000 0.025000 0.000000
0.500000 0.025000 0.000000
0.525000 0.025000 0.000000
0.550000 0.025000 0.000000
0.575000 0.025000 0.000000
0.600000 0.025000 0.000000
0.625000 0.025000 0.000000
0.650000 0.025000 0.000000
0.325000 0.050000 0.000000
0.350000 0.050000 0.000000
0.375000 0.050000 0.000000
0.400000 0.050000 0.000000
0.425000 0.050000 0.000000
0.450000 0.050000 0.000000
0.475000 0.050000 0.000000
0.500000 0.050000 0.000000
0.525000 0.050000 0.000000
0.550000 0.050000 0.000000
0.575000 0.050000 0.000000
0.600000 0.050000 0.000000
0.625000 0.050000 0.000000
0.650000 0.050000 0.000000
0.325000 0.075000 0.000000
0.350000 0.075000 0.000000
0.375000 0.075000 0.000000
0.400000 0.075000 0.000000
0.425000 0.075000 0.000000
0.450000 0.075000 0.000000
0.475000 0.075000 0.000000
0.500000 0.075000 0.000000
0.525000 0.075000 0.000000
0.550000 0.075000 0.000000
0.575000 0.075000 0.000000
0.600000 0.075000 0.000000
0.625000 0.075000 0.000000
0.650000 0.075000 0.000000
0.325000 0.100000 0.000000
0.350000 0.100000 0.000000
0.375000 0.100000 0.000000
0.400000 0.100000 0.000000
0.425000 0.100000 0.000000
0.450000 0.100000 0.000000
0.475000 0.100000 0.000000
0.500000 0.100000 0.000000
0.525000 0.100000 0.000000
0.550000 0.100000 0.000000
0.575000 0.100000 0.000000
0.600000 0.100000 0.000000
0.625000 0.100000 0.000000
0.650000 0.100000 0.000000
0.325000 0.125000 0.000000
0.350000 0.125000 0.000000
0.375000 0.125000 0.000000
0.400000 0.125000 0.000000
0.425000 0.125000 0.000000
0.450000 0.125000 0.000000
0.475000 0.125000 0.000000
0.500000 0.125000 0.000000
0.525000 0.125000 0.000000
0.550000 0.125000 0.000000
0.575000 0.125000 0.000000
0.600000 0.125000 0.000000
0.625000 0.125000 0.000000
0.650000 0.125000 0.000000
0.325000 0.150000 0.000000
0.350000 0.150000 0.000000
0.375000 0.150000 0.000000
0.400000 0.150000 0.000000
0.425000 0.150000 0.000000
0.450000 0.150000 0.000000
0.475000 0.150000 0.000000
0.500000 0.150000 0.000000
0.525000 0.150000 0.000000
0.550000 0.150000 0.000000
0.575000 0.150000 0.000000
0.600000 0.150000 0.000000
0.625000 0.150000 0.000000
0.650000 0.150000 0.000000
0.325000 0.175000 0.000000
0.350000 0.175000 0.000000
0.375000 0.175000 0.000000
0.400000 0.175000 0.000000
0.425000 0.175000 0.000000
0.450000 0.175000 0.000000
0.475000 0.175000 0.000000
0.500000 0.175000 0.000000
0.525000 0.175000 0.000000
0.550000 0.175000 0.000000
0.575000 0.175000 0.000000
0.600000 0.175000 0.000000
0.625000 0.175000 0.000000
0.650000 0.175000 0.000000
0.325000 0.200000 0.000000
0.350000 0.200000 0.000000
0.375000 0.200000 0.000000
0.400000 0.200000 0.000000
0.425000 0.200000 0.000000
0.450000 0.200000 0.000000
0.475000 0.200000 0.000000
0.500000 0.200000 0.000000
0.525000 0.200000 0.000000
0.550000 0.200000 0.000000
0.575000 0.200000 0.000000
0.600000 0.200000 0.000000
0.625000 0.200000 0.000000
0.650000 0.200000 0.000000
0.325000 0.225000 0.000000
0.350000 0.225000 0.000000
0.375000 0.225000 0.000000
0.400000 0.225000 0.000000
0.425000 0.225000 0.000000
0.450000 0.225000 0.000000
0.475000 0.225000 0.000000
0.500000 0.225000 0.000000
0.525000 0.225000 0.000000
0.550000 0.225000 0.000000
0.575000 0.225000 0.000000
0.600000 0.225000 0.000000
0.625000 0.225000 0.000000
0.650000 0.225000 0.000000
0.325000 0.250000 0.000000
0.350000 0.250000 0.000000
0.375000 0.250000 0.000000
0.400000 0.250000 0.000000
0.425000 0.250000 0.000000
0.450000 0.250000 0.000000
0.475000 0.250000 0.000000
0.500000 0.250000 0.000000
0.525000 0.250000 0.000000
0.550000 0.250000 0.000000
0.575000 0.250000 0.000000
0.600000 0.250000 0.000000
0.625000 0.250000 0.000000
0.650000 0.250000 0.000000
0.325000 0.275000 0.000000
0.350000 0.275000 0.000000
0.375000 0.275000 0.000000
0.400000 0.275000 0.000000
0.425000 0.275000 0.000000
0.450000 0.275000 0.000000
0.475000 0.275000 0.000000
0.500000 0.275000 0.000000
0.525000 0.275000 0.000000
0.550000 0.275000 0.000000
0.575000 0.275000 0.000000
0.600000 0.275000 0.000000
0.625000 0.275000 0.000000
0.650000 0.275000 0.000000
0.325000 0.300000 0.000000
0.350000 0.300000 0.000000
0.375000 0.300000 0.000000
0.400000 0.300000 0.000000
0.425000 0.300000 0.000000
0.450000 0.300000 0.000000
0.475000 0.300000 0.000000
0.500000 0.300000 0.000000
0.525000 0.300000 0.000000
0.550000 0.300000 0.000000
0.575000 0.300000 0.000000
0.600000 0.300000 0.000000
0.625000 0.300000 0.000000
0.650000 0.300000 0.000000
0.325000 0.325000 0.000000
0.350000 0.325000 0.000000
0.375000 0.325000 0.000000
0.400000 0.325000 0.000000
0.425000 0.325000 0.000000
0.450000 0.325000 0.000000
0.475000 0.325000 0.000000
0.500000 0.325000 0.000000
0.525000 0.325000 0.000000
0.550000 0.325000 0.000000
0.575000 0.325000 0.000000
0.600000 0.325000 0.000000
0.625000 0.325000 0.000000
0.650000 0.325000 0.000000
0.325000 0.350000 0.000000
0.350000 0.350000 0.000000
0.375000 0.350000 0.000000
0.400000 0.350000 0.000000
0.425000 0.350000 0.000000
0.450000 0.350000 0.000000
0.475000 0.350000 0.000000
0.500000 0.350000 0.000000
0.525000 0.350000 0.000000
0.550000 0.350000 0.000000
0.575000 0.350000 0.000000
0.600000 0.350000 0.000000
0.625000 0.350000 0.000000
0.650000 0.350000 0.000000
0.325000 0.375000 0.000000
0.350000 0.375000 0.000000
0.375000 0.375000 0.000000
0.400000 0.375000 0.000000
0.425000 0.375000 0.000000
0.450000 0.375000 0.000000
0.475000 0.375000 0.000000
0.500000 0.375000 0.000000
0.525000 0.375000 0.000000
0.550000 0.375000 0.000000
0.575000 0.375000 0.000000
0.600000 0.375000 0.000000
0.625000 0.375000 0.000000
0.650000 0.375000 0.000000
0.325000 0.400000 0.000000
0.350000 0.400000 0.000000
0.375000 0.400000 0.000000
0.400000 0.400000 0.000000
0.425000 0.400000 0.000000
0.450000 0.400000 0.000000
0.475000 0.400000 0.000000
0.500000 0.400000 0.000000
0.525000 0.400000 0.000000
0.550000 0.400000 0.000000
0.575000 0.400000 0.000000
0.600000 0.400000 0.000000
0.625000 0.400000 0.000000
0.650000 0.400000 0.000000
0.325000 0.425000 0.000000
0.350000 0.425000 0.000000
0.375000 0.425000 0.000000
0.400000 0.425000 0.000000
0.425000 0.425000 0.000000
0.450000 0.425000 0.000000
0.475000 0.425000 0.000000
0.500000 0.425000 0.000000
0.525000 0.425000 0.000000
0.550000 0.425000 0.000000
0.575000 0.425000 0.000000
0.600000 0.425000 0.000000
0.625000 0.425000 0.000000
0.650000 0.425000 0.000000
0.325000 0.450000 0.000000
0.350000 0.450000 0.000000
0.375000 0.450000 0.000000
0.400000 0.450000 0.000000
0.425000 0.450000 0.000000
0.450000 0.450000 0.000000
0.475000 0.450000 0.000000
0.500000 0.450000 0.000000
0.525000 0.450000 0.000000
0.550000 0.450000 0.000000
0.575000 0.450000 0.000000
0.600000 0.450000 0.000000
0.625000 0.450000 0.000000
0.650000 0.450000 0.000000
0.325000 0.475000 0.000000
0.350000 0.475000 0.000000
0.375000 0.475000 0.000000
0.400000 0.475000 0.000000
0.425000 0.475000 0.000000
0.450000 0.475000 0.000000
0.475000 0.475000 0.000000
0.500000 0.475000 0.000000
0.525000 0.475000 0.000000
0.550000 0.475000 0.000000
0.575000 0.475000 0.000000
0.600000 0.475000 0.000000
0.625000 0.475000 0.000000
0.650000 0.475000 0.000000
0.325000 0.500000 0.000000
0.350000 0.500000 0.000000
0.375000 0.500000 0.000000
0.400000 0.500000 0.000000
0.425000 0.500000 0.000000
0.450000 0.500000 0.000000
0.475000 0.500000 0.000000
0.500000 0.500000 0.000000
0.525000 0.500000 0.000000
0.550000 0.500000 0.000000
0.575000 0.500000 0.000000
0.600000 0.500000 0.000000
0.625000 0.500000 0.000000
0.650000 0.500000 0.000000
0.325000 0.000000 0.025000
0.350000 0.000000 0.025000
0.375000 0.000000 0.025000
0.400000 0.000000 0.025000
0.425000 0.000000 0.025000
0.450000 0.000000 0.025000
0.475000 0.000000 0.025000
0.500000 0.000000 0.025000
0.525000 0.000000 0.025000
0.550000 0.000000 0.025000
0.575000 0.000000 0.025000
0.600000 0.000000 0.025000
0.625000 0.000000 0.025000
0.650000 0.000000 0.025000
0.325000 0.025000 0.025000
0.350000 0.025000 0.025000
0.375000 0.025000 0.025000
0.400000 0.025000 0.025000
0.425000 0.025000 0.025000
0.450000 0.025000 0.025000
0.475000 0.025000 0.025000
0.500000 0.025000 0.025000
0.525000 0.025000 0.025000
0.550000 0.025000 0.025000
0.575000 0.025000 0.025000
0.600000 0.025000 0.025000
0.625000 0.025000 0.025000
0.650000 0.025000 0.025000
0.325000 0.050000 0.025000
0.350000 0.050000 0.025000
0.375000 0.050000 0.025000
0.400000 0.050000 0.025000
0.425000 0.050000 0.025000
0.450000 0.050000 0.025000
0.475000 0.050000 0.025000
0.500000 0.050000 0.025000
0.525000 0.050000 0.025000
0.550000 0.050000 0.025000
0.575000 0.050000 0.025000
0.600000 0.050000 0.025000
0.625000 0.050000 0.025000
0.650000 0.050000 0.025000
0.325000 0.075000 0.025000
0.350000 0.075000 0.025000
0.375000 0.075000 0.025000
0.400000 0.075000 0.025000
0.425000 0.075000 0.025000
0.450000 0.075000 0.025000
0.475000 0.075000 0.025000
0.500000 0.075000 0.025000
0.525000 0.075000 0.025000
0.550000 0.075000 0.025000
0.575000 0.075000 0.025000
0.600000 0.075000 0.025000
0.625000 0.075000 0.025000
0.650000 0.075000 0.025000
0.325000 0.100000 0.025000
0.350000 0.100000 0.025000
0.375000 0.100000 0.025000
0.400000 0.100000 0.025000
0.425000 0.100000 0.025000
0.450000 0.100000 0.025000
0.475000 0.100000 0.025000
0.500000 0.100000 0.025000
0.525000 0.100000 0.025000
0.550000 0.100000 0.025000
0.575000 0.100000 0.025000
0.600000 0.100000 0.025000
0.625000 0.100000 0.025000
0.650000 0.100000 0.025000
0.325000 0.125000 0.025000
[...]
CELL_DATA 10140
SCALARS density float 1
LOOKUP_TABLE default
0.999628
0.999652
0.999679
0.999709
0.999745
0.999784
0.999824
0.999864
0.999904
0.99994
0.999973
1
1.00003
0.999607
0.999633
0.999663
0.999697
0.999737
0.999779
0.999822
0.999867
0.99991
0.999951
0.999988
1.00002
1.00005
0.999593
0.999621
0.999653
0.999689
0.99973
0.999775
0.99982
0.999867
0.999913
0.999956
0.999996
1.00003
1.00006
0.999583
0.999612
0.999645
0.999683
0.999725
0.999771
0.999818
0.999866
0.999914
0.999959
1
1.00004
1.00007
0.999574
0.999604
0.999638
0.999677
0.99972
0.999767
0.999815
0.999865
0.999914
0.99996
1
1.00004
1.00008
0.999566
0.999596
0.999631
0.999671
0.999715
0.999763
0.999812
0.999863
0.999913
0.999962
1.00001
1.00005
1.00008
0.999558
0.999589
0.999624
0.999665
0.99971
0.999758
0.999808
0.99986
0.999912
0.999962
1.00001
1.00005
1.00009
0.999549
0.999581
0.999617
0.999658
0.999704
0.999753
0.999805
0.999858
0.999911
0.999962
1.00001
1.00005
1.00009
0.999541
0.999572
0.999609
0.999651
0.999697
0.999748
0.999801
0.999856
0.99991
0.999963
1.00001
1.00006
1.0001
0.999532
0.999563
0.999601
0.999643
0.999691
0.999743
0.999797
0.999854
0.99991
0.999964
1.00002
1.00006
1.0001
0.999522
0.999554
0.999592
0.999635
0.999684
0.999737
0.999793
0.999851
0.999909
0.999965
1.00002
1.00007
1.00011
0.999511
0.999544
0.999582
0.999626
0.999676
0.999731
0.999789
0.999849
0.999908
0.999966
1.00002
1.00007
1.00011
0.9995
0.999532
0.999571
0.999616
0.999668
0.999724
0.999784
0.999846
0.999908
0.999967
1.00002
1.00007
1.00011
0.999489
0.999521
0.99956
0.999607
0.999659
0.999717
0.999779
0.999843
0.999906
0.999967
1.00002
1.00007
1.00012
0.999478
0.99951
0.999549
0.999597
0.999649
0.999708
0.99977
0.999836
0.9999
0.999962
1.00002
1.00007
1.00011
0.999468
0.9995
0.99954
0.999588
0.99964
0.999701
0.999764
0.999831
0.999896
0.99996
1.00002
1.00007
1.00011
0.999459
0.999491
0.999531
0.99958
0.999635
0.999696
0.999762
0.99983
0.999897
0.999961
1.00002
1.00007
1.00012
0.999452
0.999484
0.999526
0.999576
0.999632
0.999695
0.999764
0.999834
0.999903
0.999969
1.00003
1.00008
1.00013
0.999447
0.999482
0.999525
0.999577
0.999636
0.999702
0.999773
0.999846
0.999917
0.999985
1.00005
1.0001
1.00015
0.999447
0.999483
0.999527
0.999579
0.999639
0.999705
0.999775
0.999848
0.99992
0.999988
1.00005
1.00011
1.00016
0.999607
0.999633
0.999663
0.999698
0.999737
0.999779
0.999823
0.999867
0.99991
0.999951
0.999988
1.00002
1.00005
0.999599
0.999627
0.999658
0.999694
0.999734
0.999776
0.99982
0.999865
0.999909
0.999951
0.99999
1.00002
1.00006
0.999592
0.999621
0.999654
0.999691
0.999731
0.999773
0.999818
0.999863
0.999907
0.99995
0.999991
1.00003
1.00006
0.999585
0.999616
0.99965
0.999688
0.999728
0.999771
0.999815
0.99986
0.999906
0.99995
0.999992
1.00003
1.00007
0.99958
0.999611
0.999646
0.999684
0.999725
0.999768
0.999812
0.999858
0.999904
0.999949
0.999992
1.00003
1.00007
0.999574
0.999606
0.999642
0.999681
0.999722
0.999765
0.999809
0.999855
0.999902
0.999948
0.999993
1.00004
1.00007
0.999567
0.9996
0.999637
0.999676
0.999718
0.999761
0.999806
0.999852
0.9999
0.999947
0.999994
1.00004
1.00008
0.99956
0.999594
0.999631
0.999671
0.999713
0.999757
0.999803
0.99985
0.999898
0.999946
0.999994
1.00004
1.00008
0.999553
0.999587
0.999625
0.999665
0.999708
0.999753
0.999799
0.999847
0.999896
0.999946
0.999995
1.00004
1.00008
0.999545
0.999579
0.999617
0.999658
0.999702
0.999747
0.999795
0.999844
0.999895
0.999946
0.999997
1.00004
1.00009
0.999536
0.99957
0.999608
0.99965
0.999695
0.999742
0.99979
0.999841
0.999893
0.999946
0.999998
1.00005
1.00009
0.999525
0.99956
0.999599
0.999641
0.999687
0.999735
0.999785
0.999838
0.999892
0.999946
0.999999
1.00005
1.0001
0.999514
0.999549
0.999588
0.999631
0.999678
0.999727
0.99978
0.999834
0.99989
0.999946
1
1.00005
1.0001
0.999502
0.999537
0.999576
0.99962
0.999668
0.99972
0.999774
0.99983
0.999888
0.999945
1
1.00005
1.0001
0.99949
0.999525
0.999564
0.999609
0.999658
0.999711
0.999767
0.999825
0.999884
0.999943
1
1.00005
1.0001
0.99948
0.999513
0.999553
0.999599
0.999649
0.999703
0.999761
0.999821
0.999882
0.999942
1
1.00005
1.0001
0.99947
0.999504
0.999544
0.99959
0.999642
0.999697
0.999757
0.999818
0.999881
0.999943
1
1.00006
1.0001
0.999462
0.999496
0.999537
0.999585
0.999637
0.999695
0.999756
0.999819
0.999883
0.999946
1.00001
1.00006
1.00011
0.999458
0.999492
0.999534
0.999582
0.999636
0.999695
0.999758
0.999823
0.999888
0.999952
1.00001
1.00007
1.00012
0.999457
0.999492
0.999534
0.999582
0.999636
0.999695
0.999758
0.999823
0.999889
0.999953
1.00001
1.00007
1.00012
0.999593
0.999621
0.999653
0.999689
0.999731
0.999775
0.999821
0.999868
0.999913
0.999957
0.999997
1.00003
1.00006
0.999592
0.999621
0.999654
0.999691
0.999731
0.999774
0.999818
0.999863
0.999908
0.999951
0.999992
1.00003
1.00006
0.99959
0.99962
0.999654
0.999691
0.999731
0.999772
0.999815
0.999859
0.999903
0.999946
0.999988
1.00003
1.00006
0.999587
0.999619
0.999654
0.999691
0.99973
0.999771
0.999812
0.999855
0.999898
0.999942
0.999984
1.00002
1.00006
0.999584
0.999618
0.999653
0.999691
0.999729
0.999769
0.99981
0.999851
0.999894
0.999938
0.999982
1.00002
1.00006
0.999581
0.999615
0.999651
0.999689
0.999728
0.999767
0.999807
0.999848
0.999891
0.999935
0.99998
1.00002
1.00007
0.999576
0.999611
0.999648
0.999687
0.999725
0.999764
0.999804
0.999845
0.999888
0.999933
0.999979
1.00002
1.00007
0.999571
0.999607
0.999644
0.999683
0.999722
0.999761
0.999801
0.999842
0.999886
0.999931
0.999979
1.00003
1.00007
0.999565
0.999601
0.999639
0.999679
0.999718
0.999757
0.999797
0.999839
0.999883
0.99993
0.999979
1.00003
1.00007
0.999557
0.999594
0.999633
0.999672
0.999712
0.999752
0.999793
0.999835
0.999881
0.999929
0.999979
1.00003
1.00008
0.999549
0.999586
0.999624
0.999665
0.999705
0.999746
0.999788
0.999832
0.999879
0.999928
0.99998
1.00003
1.00008
0.999538
0.999575
0.999615
0.999655
0.999697
0.999739
0.999782
0.999828
0.999876
0.999927
0.99998
1.00003
1.00008
0.999527
0.999564
0.999603
0.999645
0.999687
0.999731
0.999776
0.999823
0.999874
0.999926
0.999981
1.00003
1.00008
0.999515
0.999551
0.999591
0.999633
0.999677
0.999722
0.999769
0.999818
0.999871
0.999925
0.999981
1.00003
1.00008
0.999502
0.999538
0.999578
0.999621
0.999666
0.999713
0.999762
0.999813
0.999868
0.999924
0.99998
1.00003
1.00008
0.99949
0.999526
0.999566
0.99961
0.999655
0.999704
0.999755
0.999809
0.999865
0.999923
0.99998
1.00003
1.00009
0.99948
0.999515
0.999555
0.9996
0.999647
0.999697
0.99975
0.999806
0.999864
0.999922
0.999981
1.00004
1.00009
0.999472
0.999507
0.999547
0.999592
0.999641
0.999692
0.999747
0.999804
0.999864
0.999924
0.999983
1.00004
1.00009
0.999467
0.999502
0.999542
0.999588
0.999637
0.99969
0.999746
0.999804
0.999865
0.999926
0.999986
1.00004
1.00009
0.999466
0.999501
0.999541
0.999587
0.999636
0.99969
0.999746
0.999805
0.999866
0.999927
0.999987
1.00004
1.00009
0.999583
0.999612
0.999645
0.999683
0.999725
0.999771
0.999819
0.999867
0.999915
0.99996
1
1.00004
1.00007
0.999585
0.999616
0.99965
0.999688
0.999728
0.999771
0.999816
0.999861
0.999906
0.999951
0.999993
1.00003
1.00007
0.999587
0.999619
0.999654
0.999691
0.99973
0.999771
0.999812
0.999855
0.999899
0.999942
0.999985
1.00003
1.00006
0.999588
0.999622
0.999657
0.999694
0.999732
0.999771
0.99981
0.99985
0.999892
0.999935
0.999978
1.00002
1.00006
0.999588
0.999623
0.999659
0.999696
0.999733
0.99977
0.999807
0.999846
0.999887
0.999929
0.999973
1.00002
1.00006
0.999586
0.999623
0.999659
0.999697
0.999733
0.999769
0.999805
0.999842
0.999882
0.999925
0.99997
1.00001
1.00006
0.999584
0.999621
0.999659
0.999696
0.999732
0.999767
0.999802
0.999839
0.999879
0.999921
0.999968
1.00001
1.00006
0.99958
0.999618
0.999656
0.999694
0.99973
0.999765
0.999799
0.999835
0.999875
0.999919
0.999966
1.00001
1.00006
0.999575
0.999613
0.999652
0.999691
0.999726
0.999761
0.999795
0.999832
0.999872
0.999917
0.999965
1.00001
1.00006
0.999568
0.999607
0.999647
0.999685
0.999721
0.999756
0.999791
0.999828
0.999869
0.999915
0.999964
1.00002
1.00007
0.99956
0.999599
0.999639
0.999678
0.999714
0.99975
0.999786
0.999824
0.999866
0.999913
0.999964
1.00002
1.00007
0.99955
0.999589
0.999629
0.999668
0.999706
0.999742
0.999779
0.999819
0.999863
0.999911
0.999964
1.00002
1.00007
0.999538
0.999577
0.999617
0.999657
0.999696
0.999734
0.999773
0.999814
0.99986
0.99991
0.999964
1.00002
1.00007
0.999526
0.999564
0.999604
0.999644
0.999684
0.999724
0.999765
0.999809
0.999857
0.999909
0.999964
1.00002
1.00007
0.999512
0.99955
0.99959
0.999631
0.999672
0.999714
0.999757
0.999803
0.999853
0.999907
0.999963
1.00002
1.00007
0.999499
0.999537
0.999576
0.999618
0.999661
0.999704
0.999749
0.999798
0.99985
0.999905
0.999963
1.00002
1.00007
0.999488
0.999525
0.999564
0.999607
0.99965
0.999696
0.999743
0.999794
0.999848
0.999904
0.999963
1.00002
1.00007
0.999479
0.999515
0.999555
0.999598
0.999643
0.99969
0.999739
0.999791
0.999846
0.999904
0.999963
1.00002
1.00007
0.999474
0.99951
0.999549
0.999593
0.999638
0.999686
0.999736
0.99979
0.999846
0.999905
0.999965
1.00002
1.00008
0.999473
0.999508
0.999548
0.999591
0.999637
0.999685
0.999736
0.99979
0.999847
0.999906
0.999966
1.00002
1.00008
0.999574
0.999604
0.999638
0.999677
0.99972
0.999767
0.999816
0.999866
0.999916
0.999962
1.00001
1.00005
1.00008
0.999579
0.999611
0.999646
0.999684
0.999725
0.999768
0.999813
0.999859
0.999905
0.99995
0.999994
1.00003
1.00007
0.999584
0.999617
0.999653
0.999691
0.999729
0.999769
0.99981
0.999852
0.999895
0.999939
0.999983
1.00002
1.00006
0.999588
0.999623
0.999659
0.999696
0.999733
0.99977
0.999807
0.999846
0.999887
0.999929
0.999974
1.00002
1.00006
0.99959
0.999626
0.999663
0.9997
0.999736
0.99977
0.999805
0.999841
0.99988
0.999922
0.999967
1.00001
1.00006
0.99959
0.999628
0.999666
0.999703
0.999737
0.99977
0.999803
0.999837
0.999875
0.999916
0.999962
1.00001
1.00005
0.999589
0.999629
0.999667
0.999704
0.999738
0.99977
0.999801
0.999834
0.999871
0.999912
0.999959
1.00001
1.00006
0.999587
0.999627
0.999666
0.999703
0.999737
0.999768
0.999798
0.99983
0.999867
0.999909
0.999956
1.00001
1.00006
0.999583
0.999624
0.999663
0.999701
0.999734
0.999765
0.999795
0.999827
0.999864
0.999906
0.999955
1.00001
1.00006
0.999577
0.999618
0.999658
0.999696
0.999729
0.99976
0.99979
0.999822
0.99986
0.999904
0.999954
1.00001
1.00006
0.999569
0.999611
0.999651
0.999689
0.999722
0.999754
0.999784
0.999818
0.999857
0.999902
0.999953
1.00001
1.00006
0.999559
0.9996
0.99964
0.999679
0.999713
0.999746
0.999778
0.999813
0.999853
0.999899
0.999952
1.00001
1.00006
0.999547
0.999588
0.999628
0.999667
0.999702
0.999736
0.99977
0.999807
0.999849
0.999898
0.999952
1.00001
1.00006
0.999534
0.999574
0.999614
0.999653
0.99969
0.999726
0.999762
0.999801
0.999845
0.999896
0.999951
1.00001
1.00006
0.99952
0.999559
0.999599
0.999639
0.999677
0.999714
0.999753
0.999795
0.999841
0.999893
0.99995
1.00001
1.00006
0.999506
0.999544
0.999584
0.999624
0.999664
0.999703
0.999744
0.999788
0.999838
0.999891
0.999949
1.00001
1.00006
0.999493
0.999531
0.99957
0.999611
0.999652
0.999694
0.999737
0.999783
0.999834
0.99989
0.999949
1.00001
1.00006
0.999484
0.99952
0.99956
0.999601
0.999643
0.999686
0.999731
0.999779
0.999832
0.999889
0.999948
1.00001
1.00006
0.999478
0.999514
0.999553
0.999595
0.999637
0.999682
0.999728
0.999777
0.999831
0.999889
0.999949
1.00001
1.00006
0.999476
0.999512
0.999551
0.999593
0.999636
0.99968
0.999727
0.999777
0.999832
0.99989
0.99995
1.00001
1.00006
0.999565
0.999596
0.999631
0.999671
0.999715
0.999763
0.999813
0.999864
0.999915
0.999964
1.00001
1.00005
1.00009
0.999573
0.999606
0.999641
0.99968
0.999722
0.999765
0.99981
0.999856
0.999903
0.99995
0.999995
1.00004
1.00008
0.99958
0.999615
0.999651
0.999689
0.999728
0.999767
0.999807
0.999849
0.999892
0.999937
0.999982
1.00003
1.00007
0.999586
0.999623
0.999659
0.999697
0.999733
0.999769
0.999805
0.999843
0.999883
0.999926
0.999971
1.00002
1.00006
0.99959
0.999628
0.999666
0.999703
0.999738
0.999771
0.999803
0.999838
0.999875
0.999917
0.999962
1.00001
1.00006
0.999593
0.999632
0.999671
0.999708
0.999741
0.999772
0.999802
0.999834
0.99987
0.99991
0.999956
1
1.00005
0.999593
0.999634
0.999673
0.99971
0.999742
0.999772
0.9998
0.99983
0.999865
0.999906
0.999953
1
1.00005
0.999592
0.999634
0.999674
0.999711
0.999742
0.999771
0.999797
0.999827
0.999861
0.999902
0.99995
1
1.00005
0.999589
0.999631
0.999672
0.999709
0.99974
0.999768
0.999794
0.999823
0.999857
0.999899
0.999948
1
1.00006
0.999583
0.999626
0.999667
0.999704
0.999736
0.999763
0.99979
0.999818
0.999854
0.999896
0.999947
1
1.00006
0.999576
0.999619
0.99966
0.999697
0.999729
0.999757
0.999784
0.999814
0.99985
0.999894
0.999946
1
1.00006
0.999565
0.999608
0.999649
0.999687
0.999719
0.999748
0.999777
0.999808
0.999846
0.999891
0.999945
1
1.00006
0.999553
0.999595
0.999636
0.999674
0.999707
0.999738
0.999768
0.999802
0.999842
0.999889
0.999944
1
1.00006
0.999539
0.99958
0.999621
0.999659
0.999694
0.999726
0.999759
0.999795
0.999837
0.999887
0.999943
1
1.00006
0.999524
0.999564
0.999604
0.999643
0.999679
0.999714
0.999749
0.999788
0.999833
0.999884
0.999942
1
1.00006
0.999509
0.999548
0.999588
0.999627
0.999665
0.999702
0.999739
0.999781
0.999828
0.999882
0.99994
1
1.00006
0.999495
0.999533
0.999573
0.999613
0.999652
0.999691
0.999731
0.999775
0.999824
0.999879
0.999939
0.999999
1.00006
0.999484
0.999521
0.999561
0.999601
0.999641
0.999682
0.999724
0.99977
0.999821
0.999878
0.999938
0.999998
1.00006
0.999478
0.999514
0.999553
0.999594
0.999635
0.999676
0.99972
0.999767
0.99982
0.999877
0.999938
0.999998
1.00006
0.999476
0.999512
0.99955
0.999591
0.999633
0.999675
0.999719
0.999767
0.99982
0.999878
0.999939
0.999999
1.00006
0.999556
0.999587
0.999623
0.999664
0.999709
0.999759
0.999809
0.999862
0.999915
0.999965
1.00001
1.00005
1.00009
0.999567
0.9996
0.999636
0.999676
0.999718
0.999762
0.999807
0.999854
0.999902
0.99995
0.999996
1.00004
1.00008
0.999576
0.999611
0.999648
0.999687
0.999725
0.999765
0.999805
0.999846
0.99989
0.999935
0.999981
1.00003
1.00007
0.999584
0.999621
0.999659
0.999696
0.999732
0.999768
0.999803
0.99984
0.99988
0.999923
0.999969
1.00002
1.00006
0.999589
0.999629
0.999667
0.999704
0.999738
0.99977
0.999801
0.999834
0.999871
0.999913
0.99996
1.00001
1.00006
0.999593
0.999634
0.999674
0.99971
0.999743
0.999772
0.9998
0.99983
0.999865
0.999906
0.999953
1
1.00005
0.999595
0.999637
0.999677
0.999714
0.999745
0.999773
0.999799
0.999827
0.999861
0.999901
0.999949
1
1.00005
0.999594
0.999638
0.999679
0.999715
0.999746
0.999772
0.999797
0.999824
0.999857
0.999898
0.999947
1
1.00006
0.999592
0.999636
0.999677
0.999714
0.999744
0.99977
0.999793
0.99982
0.999853
0.999894
0.999945
1
1.00006
0.999587
0.999631
0.999673
0.99971
0.99974
0.999765
0.999789
0.999815
0.999849
0.999891
0.999943
1
1.00006
0.999579
0.999623
0.999665
0.999702
0.999733
0.999758
0.999783
0.99981
0.999845
0.999889
0.999942
1
1.00006
0.999568
0.999612
0.999654
0.999691
0.999722
0.999749
0.999775
0.999804
0.999841
0.999887
0.999941
1
1.00006
0.999555
0.999598
0.99964
0.999678
0.99971
0.999738
0.999766
0.999798
0.999837
0.999884
0.99994
1
1.00006
0.99954
0.999582
0.999623
0.999662
0.999695
0.999726
0.999756
0.99979
0.999832
0.999882
0.999939
1
1.00006
0.999524
0.999565
0.999605
0.999644
0.999679
0.999712
0.999745
0.999783
0.999827
0.999879
0.999938
0.999999
1.00006
0.999507
0.999547
0.999587
0.999627
0.999663
0.999698
0.999734
0.999775
0.999821
0.999875
0.999936
0.999998
1.00006
0.999493
0.999531
0.999571
0.99961
0.999648
0.999686
0.999725
0.999767
0.999817
0.999872
0.999933
0.999996
1.00006
0.999481
0.999518
0.999557
0.999597
0.999636
0.999676
0.999717
0.999762
0.999813
0.99987
0.999932
0.999994
1.00005
0.999473
0.99951
0.999549
0.999589
0.999629
0.999669
0.999712
0.999758
0.999811
0.999869
0.999931
0.999993
1.00005
0.999471
0.999507
0.999546
0.999586
0.999626
0.999668
0.999711
0.999758
0.999811
0.999869
0.999932
0.999994
1.00005
0.999548
0.999579
0.999615
0.999657
0.999703
0.999754
0.999805
0.99986
0.999914
0.999966
1.00001
1.00006
1.0001
0.999559
0.999593
0.99963
0.99967
0.999713
0.999757
0.999804
0.999851
0.9999
0.999949
0.999998
1.00004
1.00008
0.99957
0.999606
0.999644
0.999683
0.999722
0.999761
0.999802
0.999843
0.999888
0.999934
0.999982
1.00003
1.00007
0.99958
0.999618
0.999656
0.999694
0.99973
0.999765
0.9998
0.999837
0.999877
0.999921
0.999968
1.00002
1.00006
0.999587
0.999627
0.999666
0.999704
0.999737
0.999768
0.999799
0.999831
0.999868
0.99991
0.999958
1.00001
1.00006
0.999592
0.999634
0.999674
0.999711
0.999743
0.999771
0.999798
0.999827
0.999862
0.999903
0.999951
1
1.00006
0.999594
0.999638
0.999679
0.999716
0.999746
0.999772
0.999797
0.999824
0.999857
0.999898
0.999947
1
1.00006
0.999594
0.999639
0.999681
0.999718
0.999747
0.999772
0.999795
0.999821
0.999853
0.999894
0.999944
1
1.00006
0.999592
0.999638
0.99968
0.999717
0.999746
0.99977
0.999792
0.999817
0.999849
0.999891
0.999942
0.999999
1.00006
0.999587
0.999633
0.999675
0.999712
0.999741
0.999765
0.999787
0.999812
0.999845
0.999888
0.999941
1
1.00006
0.999579
0.999624
0.999667
0.999704
0.999734
0.999758
0.999781
0.999807
0.999841
0.999885
0.99994
1
1.00006
0.999568
0.999613
0.999655
0.999692
0.999723
0.999748
0.999773
0.999801
0.999837
0.999883
0.999939
1
1.00006
0.999554
0.999598
0.99964
0.999677
0.999709
0.999736
0.999763
0.999794
0.999832
0.999881
0.999939
1
1.00006
0.999537
0.99958
0.999622
0.99966
0.999693
0.999723
0.999752
0.999786
0.999827
0.999878
0.999937
1
1.00006
0.99952
0.999561
0.999602
0.999641
0.999675
0.999708
0.99974
0.999777
0.999822
0.999875
0.999935
0.999999
1.00006
0.999502
0.999542
0.999582
0.999622
0.999658
0.999693
0.999728
0.999768
0.999816
0.999871
0.999933
0.999997
1.00006
0.999486
0.999525
0.999564
0.999604
0.999642
0.999679
0.999717
0.99976
0.99981
0.999867
0.99993
0.999994
1.00006
0.999473
0.99951
0.99955
0.99959
0.999628
0.999667
0.999708
0.999754
0.999806
0.999864
0.999928
0.999992
1.00005
0.999465
0.999501
0.99954
0.99958
0.99962
0.99966
0.999703
0.99975
0.999803
0.999863
0.999927
0.999991
1.00005
0.999462
0.999498
0.999537
0.999577
0.999617
0.999658
0.999701
0.999749
0.999803
0.999863
0.999927
0.999991
1.00005
0.999538
0.99957
0.999607
0.999649
0.999696
0.999748
0.999802
0.999858
0.999913
0.999967
1.00002
1.00006
1.0001
0.999551
0.999585
0.999623
0.999664
0.999707
0.999753
0.9998
0.999849
0.999899
0.999949
0.999999
1.00005
1.00009
0.999564
0.9996
0.999638
0.999678
0.999717
0.999757
0.999798
0.99984
0.999885
0.999933
0.999982
1.00003
1.00008
0.999574
0.999613
0.999652
0.999691
0.999727
0.999762
0.999796
0.999833
0.999874
0.999919
0.999967
1.00002
1.00007
0.999583
0.999624
0.999664
0.999701
0.999735
0.999765
0.999795
0.999828
0.999865
0.999908
0.999956
1.00001
1.00006
0.999589
0.999631
0.999672
0.999709
0.999741
0.999768
0.999795
0.999823
0.999858
0.9999
0.999949
1
1.00006
0.999591
0.999636
0.999678
0.999715
0.999745
0.99977
0.999794
0.99982
0.999853
0.999895
0.999945
1
1.00006
0.999592
0.999638
0.99968
0.999717
0.999746
0.99977
0.999792
0.999817
0.999849
0.999891
0.999942
1
1.00006
0.999589
0.999636
0.999679
0.999716
0.999744
0.999768
0.999789
0.999813
0.999845
0.999888
0.999941
1
1.00006
0.999584
0.999631
0.999674
0.999711
0.99974
0.999763
0.999784
0.999808
0.999841
0.999885
0.999939
1
1.00006
0.999575
0.999622
0.999665
0.999702
0.999731
0.999755
0.999777
0.999803
0.999837
0.999883
0.999939
1
1.00007
0.999563
0.999609
0.999652
0.999689
0.999719
0.999744
0.999768
0.999796
0.999833
0.99988
0.999938
1
1.00007
0.999548
0.999593
0.999635
0.999673
0.999704
0.999732
0.999758
0.999789
0.999828
0.999878
0.999938
1
1.00007
0.999531
0.999574
0.999616
0.999654
0.999687
0.999717
0.999746
0.99978
0.999823
0.999875
0.999936
1
1.00007
0.999512
0.999553
0.999594
0.999633
0.999668
0.9997
0.999733
0.999771
0.999817
0.999872
0.999934
1
1.00007
0.999493
0.999533
0.999573
0.999612
0.999649
0.999684
0.99972
0.999761
0.99981
0.999867
0.999931
0.999998
1.00006
0.999475
0.999514
0.999553
0.999593
0.999631
0.999669
0.999708
0.999752
0.999804
0.999863
0.999928
0.999994
1.00006
0.999461
0.999498
0.999537
0.999577
0.999616
0.999656
0.999698
0.999745
0.999799
0.999859
0.999925
0.999992