# vtk DataFile Version 2.0
I need something to put here
ASCII

DATASET STRUCTURED_GRID
DIMENSIONS 14 20 40
POINTS 11200 float
0.325000 0.500000 0.000000
0.350000 0.500000 0.000000
0.375000 0.500000 0.000000
0.400000 0.500000 0.000000
0.425000 0.500000 0.000000
0.450000 0.500000 0.000000
0.475000 0.500000 0.000000
0.500000 0.500000 0.000000
0.525000 0.500000 0.000000
0.550000 0.500000 0.000000
0.575000 0.500000 0.000000
0.600000 0.500000 0.000000
0.625000 0.500000 0.000000
0.650000 0.500000 0.000000
0.325000 0.525000 0.000000
0.350000 0.525000 0.000000
0.375000 0.525000 0.000000
0.400000 0.525000 0.000000
0.425000 0.525000 0.000000
0.450000 0.525000 0.000000
0.475000 0.525000 0.000000
0.500000 0.525000 0.000000
0.525000 0.525000 0.000000
0.550000 0.525000 0.000000
0.575000 0.525000 0.000000
0.600000 0.525000 0.000000
0.625000 0.525000 0.000000
0.650000 0.525000 0.000000
0.325000 0.550000 0.000000
0.350000 0.550000 0.000000
0.375000 0.550000 0.000000
0.400000 0.550000 0.000000
0.425000 0.550000 0.000000
0.450000 0.550000 0.000000
0.475000 0.550000 0.000000
0.500000 0.550000 0.000000
0.525000 0.550000 0.000000
0.550000 0.550000 0.000000
0.575000 0.550000 0.000000
0.600000 0.550000 0.000000
0.625000 0.550000 0.000000
0.650000 0.550000 0.000000
0.325000 0.575000 0.000000
0.350000 0.575000 0.000000
0.375000 0.575000 0.000000
0.400000 0.575000 0.000000
0.425000 0.575000 0.000000
0.450000 0.575000 0.000000
0.475000 0.575000 0.000000
0.500000 0.575000 0.000000
0.525000 0.575000 0.000000
0.550000 0.575000 0.000000
0.575000 0.575000 0.000000
0.600000 0.575000 0.000000
0.625000 0.575000 0.000000
0.650000 0.575000 0.000000
0.325000 0.600000 0.000000
0.350000 0.600000 0.000000
0.375000 0.600000 0.000000
0.400000 0.600000 0.000000
0.425000 0.600000 0.000000
0.450000 0.600000 0.000000
0.475000 0.600000 0.000000
0.500000 0.600000 0.000000
0.525000 0.600000 0.000000
0.550000 0.600000 0.000000
0.575000 0.600000 0.000000
0.600000 0.600000 0.000000
0.625000 0.600000 0.000000
0.650000 0.600000 0.000000
0.325000 0.625000 0.000000
0.350000 0.625000 0.000000
0.375000 0.625000 0.000000
0.400000 0.625000 0.000000
0.425000 0.625000 0.000000
0.450000 0.625000 0.000000
0.475000 0.625000 0.000000
0.500000 0.625000 0.000000
0.525000 0.625000 0.000000
0.550000 0.625000 0.000000
0.575000 0.625000 0.000000
0.600000 0.625000 0.000000
0.625000 0.625000 0.000000
0.650000 0.625000 0.000000
0.325000 0.650000 0.000000
0.350000 0.650000 0.000000
0.375000 0.650000 0.000000
0.400000 0.650000 0.000000
0.425000 0.650000 0.000000
0.450000 0.650000 0.000000
0.475000 0.650000 0.000000
0.500000 0.650000 0.000000
0.525000 0.650000 0.000000
0.550000 0.650000 0.000000
0.575000 0.650000 0.000000
0.600000 0.650000 0.000000
0.625000 0.650000 0.000000
0.650000 0.650000 0.000000
0.325000 0.675000 0.000000
0.350000 0.675000 0.000000
0.375000 0.675000 0.000000
0.400000 0.675000 0.000000
0.425000 0.675000 0.000000
0.450000 0.675000 0.000000
0.475000 0.675000 0.000000
0.500000 0.675000 0.000000
0.525000 0.675000 0.000000
0.550000 0.675000 0.000000
0.575000 0.675000 0.000000
0.600000 0.675000 0.000000
0.625000 0.675000 0.000000
0.650000 0.675000 0.000000
0.325000 0.700000 0.000000
0.350000 0.700000 0.000000
0.375000 0.700000 0.000000
0.400000 0.700000 0.000000
0.425000 0.700000 0.000000
0.450000 0.700000 0.000000
0.475000 0.700000 0.000000
0.500000 0.700000 0.000000
0.525000 0.700000 0.000000
0.550000 0.700000 0.000000
0.575000 0.700000 0.000000
0.600000 0.700000 0.000000
0.625000 0.700000 0.000000
0.650000 0.700000 0.000000
0.325000 0.725000 0.000000
0.350000 0.725000 0.000000
0.375000 0.725000 0.000000
0.400000 0.725000 0.000000
0.425000 0.725000 0.000000
0.450000 0.725000 0.000000
0.475000 0.725000 0.000000
0.500000 0.725000 0.000000
0.525000 0.725000 0.000000
0.550000 0.725000 0.000000
0.575000 0.725000 0.000000
0.600000 0.725000 0.000000
0.625000 0.725000 0.000000
0.650000 0.725000 0.000000
0.325000 0.750000 0.000000
0.350000 0.750000 0.000000
0.375000 0.750000 0.000000
0.400000 0.750000 0.000000
0.425000 0.750000 0.000000
0.450000 0.750000 0.000000
0.475000 0.750000 0.000000
0.500000 0.750000 0.000000
0.525000 0.750000 0.000000
0.550000 0.750000 0.000000
0.575000 0.750000 0.000000
0.600000 0.750000 0.000000
0.625000 0.750000 0.000000
0.650000 0.750000 0.000000
0.325000 0.775000 0.000000
0.350000 0.775000 0.000000
0.375000 0.775000 0.000000
0.400000 0.775000 0.000000
0.425000 0.775000 0.000000
0.450000 0.775000 0.000000
0.475000 0.775000 0.000000
0.500000 0.775000 0.000000
0.525000 0.775000 0.000000
0.550000 0.775000 0.000000
0.575000 0.775000 0.000000
0.600000 0.775000 0.000000
0.625000 0.775000 0.000000
0.650000 0.775000 0.000000
0.325000 0.800000 0.000000
0.350000 0.800000 0.000000
0.375000 0.800000 0.000000
0.400000 0.800000 0.000000
0.425000 0.800000 0.000000
0.450000 0.800000 0.000000
0.475000 0.800000 0.000000
0.500000 0.800000 0.000000
0.525000 0.800000 0.000000
0.550000 0.800000 0.000000
0.575000 0.800000 0.000000
0.600000 0.800000 0.000000
0.625000 0.800000 0.000000
0.650000 0.800000 0.000000
0.325000 0.825000 0.000000
0.350000 0.825000 0.000000
0.375000 0.825000 0.000000
0.400000 0.825000 0.000000
0.425000 0.825000 0.000000
0.450000 0.825000 0.000000
0.475000 0.825000 0.000000
0.500000 0.825000 0.000000
0.525000 0.825000 0.000000
0.550000 0.825000 0.000000
0.575000 0.825000 0.000000
0.600000 0.825000 0.000000
0.625000 0.825000 0.000000
0.650000 0.825000 0.000000
0.325000 0.850000 0.000000
0.350000 0.850000 0.000000
0.375000 0.850000 0.000000
0.400000 0.850000 0.000000
0.425000 0.850000 0.000000
0.450000 0.850000 0.000000
0.475000 0.850000 0.000000
0.500000 0.850000 0.000000
0.525000 0.850000 0.000000
0.550000 0.850000 0.000000
0.575000 0.850000 0.000000
0.600000 0.850000 0.000000
0.625000 0.850000 0.000000
0.650000 0.850000 0.000000
0.325000 0.875000 0.000000
0.350000 0.875000 0.000000
0.375000 0.875000 0.000000
0.400000 0.875000 0.000000
0.425000 0.875000 0.000000
0.450000 0.875000 0.000000
0.475000 0.875000 0.000000
0.500000 0.875000 0.000000
0.525000 0.875000 0.000000
0.550000 0.875000 0.000000
0.575000 0.875000 0.000000
0.600000 0.875000 0.000000
0.625000 0.875000 0.000000
0.650000 0.875000 0.000000
0.325000 0.900000 0.000000
0.350000 0.900000 0.000000
0.375000 0.900000 0.000000
0.400000 0.900000 0.000000
0.425000 0.900000 0.000000
0.450000 0.900000 0.000000
0.475000 0.900000 0.000000
0.500000 0.900000 0.000000
0.525000 0.900000 0.000000
0.550000 0.900000 0.000000
0.575000 0.900000 0.000000
0.600000 0.900000 0.000000
0.625000 0.900000 0.000000
0.650000 0.900000 0.000000
0.325000 0.925000 0.000000
0.350000 0.925000 0.000000
0.375000 0.925000 0.000000
0.400000 0.925000 0.000000
0.425000 0.925000 0.000000
0.450000 0.925000 0.000000
0.475000 0.925000 0.000000
0.500000 0.925000 0.000000
0.525000 0.925000 0.000000
0.550000 0.925000 0.000000
0.575000 0.925000 0.000000
0.600000 0.925000 0.000000
0.625000 0.925000 0.000000
0.650000 0.925000 0.000000
0.325000 0.950000 0.000000
0.350000 0.950000 0.000000
0.375000 0.950000 0.000000
0.400000 0.950000 0.000000
0.425000 0.950000 0.000000
0.450000 0.950000 0.000000
0.475000 0.950000 0.000000
0.500000 0.950000 0.000000
0.525000 0.950000 0.000000
0.550000 0.950000 0.000000
0.575000 0.950000 0.000000
0.600000 0.950000 0.000000
0.625000 0.950000 0.000000
0.650000 0.950000 0.000000
0.325000 0.975000 0.000000
0.350000 0.975000 0.000000
0.375000 0.975000 0.000000
0.400000 0.975000 0.000000
0.425000 0.975000 0.000000
0.450000 0.975000 0.000000
0.475000 0.975000 0.000000
0.500000 0.975000 0.000000
0.525000 0.975000 0.000000
0.550000 0.975000 0.000000
0.575000 0.975000 0.000000
0.600000 0.975000 0.000000
0.625000 0.975000 0.000000
0.650000 0.975000 0.000000
0.325000 0.500000 0.025000
0.350000 0.500000 0.025000
0.375000 0.500000 0.025000
0.400000 0.500000 0.025000
0.425000 0.500000 0.025000
0.450000 0.500000 0.025000
0.475000 0.500000 0.025000
0.500000 0.500000 0.025000
0.525000 0.500000 0.025000
0.550000 0.500000 0.025000
0.575000 0.500000 0.025000
0.600000 0.500000 0.025000
0.625000 0.500000 0.025000
0.650000 0.500000 0.025000
0.325000 0.525000 0.025000
0.350000 0.525000 0.025000
0.375000 0.525000 0.025000
0.400000 0.525000 0.025000
0.425000 0.525000 0.025000
0.450000 0.525000 0.025000
0.475000 0.525000 0.025000
0.500000 0.525000 0.025000
0.525000 0.525000 0.025000
0.550000 0.525000 0.025000
0.575000 0.525000 0.025000
0.600000 0.525000 0.025000
0.625000 0.525000 0.025000
0.650000 0.525000 0.025000
0.325000 0.550000 0.025000
0.350000 0.550000 0.025000
0.375000 0.550000 0.025000
0.400000 0.550000 0.025000
0.425000 0.550000 0.025000
0.450000 0.550000 0.025000
0.475000 0.550000 0.025000
0.500000 0.550000 0.025000
0.525000 0.550000 0.025000
0.550000 0.550000 0.025000
0.575000 0.550000 0.025000
0.600000 0.550000 0.025000
0.625000 0.550000 0.025000
0.650000 0.550000 0.025000
0.325000 0.575000 0.025000
0.350000 0.575000 0.025000
0.375000 0.575000 0.025000
0.400000 0.575000 0.025000
0.425000 0.575000 0.025000
0.450000 0.575000 0.025000
0.475000 0.575000 0.025000
0.500000 0.575000 0.025000
0.525000 0.575000 0.025000
0.550000 0.575000 0.025000
0.575000 0.575000 0.025000
0.600000 0.575000 0.025000
0.625000 0.575000 0.025000
0.650000 0.575000 0.025000
0.325000 0.600000 0.025000
0.350000 0.600000 0.025000
0.375000 0.600000 0.025000
0.400000 0.600000 0.025000
0.425000 0.600000 0.025000
0.450000 0.600000 0.025000
0.475000 0.600000 0.025000
0.500000 0.600000 0.025000
0.525000 0.600000 0.025000
0.550000 0.600000 0.025000
0.575000 0.600000 0.025000
0.600000 0.600000 0.025000
0.625000 0.600000 0.025000
0.650000 0.600000 0.025000
0.325000 0.625000 0.025000
0.350000 0.625000 0.025000
0.375000 0.625000 0.025000
0.400000 0.625000 0.025000
0.425000 0.625000 0.025000
0.450000 0.625000 0.025000
0.475000 0.625000 0.025000
0.500000 0.625000 0.025000
0.525000 0.625000 0.025000
0.550000 0.625000 0.025000
0.575000 0.625000 0.025000
0.600000 0.625000 0.025000
0.625000 0.625000 0.025000
0.650000 0.625000 0.025000
0.325000 0.650000 0.025000
[...]
CELL_DATA 9633
SCALARS density float 1
LOOKUP_TABLE default
0.999712
0.999719
0.999727
0.999736
0.999746
0.999757
0.999768
0.999779
0.99979
0.999801
0.999811
0.99982
0.999827
0.999713
0.999721
0.99973
0.999739
0.999749
0.99976
0.999771
0.999782
0.999793
0.999804
0.999815
0.999825
0.999834
0.999714
0.999723
0.999732
0.999742
0.999751
0.999762
0.999773
0.999784
0.999796
0.999807
0.999818
0.999828
0.999837
0.999716
0.999724
0.999734
0.999744
0.999753
0.999764
0.999775
0.999786
0.999798
0.999809
0.99982
0.999831
0.99984
0.999717
0.999726
0.999735
0.999745
0.999755
0.999765
0.999776
0.999788
0.999799
0.99981
0.999821
0.999832
0.999843
0.999718
0.999728
0.999738
0.999747
0.999756
0.999767
0.999777
0.999789
0.9998
0.999811
0.999822
0.999833
0.999845
0.999723
0.999731
0.99974
0.99975
0.999759
0.999769
0.99978
0.999791
0.999802
0.999813
0.999826
0.999833
0.999846
0.999739
0.999746
0.999755
0.999765
0.999774
0.999784
0.999794
0.999805
0.999816
0.999827
0.999835
0.99984
0.999847
0.999724
0.999732
0.999742
0.999751
0.99976
0.999771
0.999782
0.999793
0.999804
0.999815
0.999828
0.999836
0.99985
0.99972
0.999731
0.999742
0.999752
0.99976
0.999771
0.999782
0.999793
0.999802
0.999813
0.999825
0.999839
0.999855
0.99972
0.999731
0.999742
0.999752
0.999761
0.999771
0.999783
0.999794
0.999804
0.999815
0.999827
0.999841
0.999857
0.999719
0.99973
0.999741
0.999752
0.999761
0.999772
0.999784
0.999796
0.999807
0.999818
0.99983
0.999844
0.999859
0.999718
0.999729
0.99974
0.999751
0.999762
0.999773
0.999785
0.999798
0.999809
0.999822
0.999834
0.999847
0.999862
0.999715
0.999727
0.999739
0.999751
0.999762
0.999775
0.999787
0.9998
0.999812
0.999825
0.999839
0.999854
0.999869
0.999708
0.999721
0.999736
0.99975
0.999763
0.999776
0.999789
0.999802
0.999815
0.99983
0.999846
0.999863
0.999881
0.999688
0.999708
0.999731
0.999749
0.999764
0.999778
0.999791
0.999805
0.999819
0.999835
0.999855
0.999881
0.999905
0.999634
0.99969
0.999725
0.999748
0.999764
0.99978
0.999794
0.999809
0.999825
0.999843
0.999868
0.999906
0.999965
0.999562
0.999674
0.99972
0.999746
0.999765
0.999783
0.999799
0.999816
0.999834
0.999855
0.999883
0.999931
1.00005
0.999574
0.999691
0.999736
0.99976
0.999776
0.99979
0.999804
0.999819
0.999834
0.999851
0.999876
0.999924
1.00004
0.999715
0.999723
0.999732
0.999742
0.999752
0.999762
0.999773
0.999785
0.999796
0.999808
0.999819
0.999829
0.999839
0.999717
0.999725
0.999734
0.999743
0.999753
0.999764
0.999774
0.999786
0.999797
0.999808
0.999819
0.999829
0.999839
0.999719
0.999727
0.999736
0.999745
0.999755
0.999765
0.999776
0.999787
0.999798
0.999809
0.99982
0.99983
0.99984
0.999721
0.999729
0.999738
0.999747
0.999757
0.999767
0.999778
0.999789
0.9998
0.999811
0.999821
0.999832
0.999842
0.999723
0.999731
0.99974
0.999749
0.999759
0.999769
0.99978
0.99979
0.999801
0.999812
0.999823
0.999833
0.999843
0.999725
0.999733
0.999742
0.999752
0.999761
0.999771
0.999781
0.999792
0.999803
0.999813
0.999824
0.999834
0.999845
0.999727
0.999736
0.999745
0.999754
0.999764
0.999774
0.999784
0.999794
0.999805
0.999816
0.999826
0.999836
0.999846
0.99973
0.999741
0.99975
0.999759
0.999768
0.999778
0.999789
0.999799
0.99981
0.99982
0.999829
0.999839
0.999849
0.999728
0.999737
0.999746
0.999756
0.999765
0.999775
0.999786
0.999796
0.999807
0.999818
0.999829
0.999839
0.99985
0.999726
0.999736
0.999745
0.999755
0.999764
0.999775
0.999785
0.999796
0.999806
0.999817
0.999829
0.99984
0.999852
0.999724
0.999735
0.999745
0.999754
0.999764
0.999774
0.999785
0.999796
0.999807
0.999818
0.999829
0.999842
0.999855
0.999723
0.999733
0.999744
0.999754
0.999764
0.999775
0.999786
0.999797
0.999808
0.99982
0.999832
0.999844
0.999857
0.999721
0.999732
0.999742
0.999753
0.999764
0.999775
0.999787
0.999798
0.99981
0.999822
0.999834
0.999847
0.999861
0.999718
0.999729
0.999741
0.999752
0.999764
0.999775
0.999788
0.9998
0.999812
0.999825
0.999839
0.999852
0.999867
0.999712
0.999725
0.999738
0.999751
0.999763
0.999776
0.999789
0.999802
0.999815
0.999829
0.999844
0.99986
0.999875
0.999701
0.999718
0.999734
0.999749
0.999763
0.999777
0.999791
0.999804
0.999818
0.999834
0.999851
0.999869
0.99989
0.999686
0.999706
0.999728
0.999748
0.999764
0.999778
0.999793
0.999807
0.999822
0.99984
0.999861
0.999886
0.999909
0.999643
0.999692
0.999725
0.999748
0.999765
0.99978
0.999795
0.999811
0.999827
0.999845
0.99987
0.999905
0.999956
0.999645
0.999697
0.999732
0.999753
0.999769
0.999784
0.999798
0.999813
0.999828
0.999846
0.999869
0.999905
0.99996
0.999721
0.99973
0.999738
0.999748
0.999758
0.999768
0.999779
0.99979
0.999801
0.999812
0.999823
0.999834
0.999845
0.999724
0.999732
0.99974
0.999749
0.999759
0.999769
0.99978
0.99979
0.999801
0.999812
0.999823
0.999834
0.999844
0.999726
0.999734
0.999742
0.999751
0.999761
0.999771
0.999781
0.999792
0.999802
0.999813
0.999824
0.999834
0.999845
0.999728
0.999736
0.999744
0.999753
0.999763
0.999772
0.999783
0.999793
0.999804
0.999814
0.999825
0.999835
0.999845
0.999729
0.999738
0.999746
0.999755
0.999764
0.999774
0.999784
0.999795
0.999805
0.999816
0.999826
0.999836
0.999846
0.999731
0.999739
0.999748
0.999757
0.999766
0.999776
0.999786
0.999796
0.999807
0.999817
0.999827
0.999837
0.999847
0.999732
0.999741
0.99975
0.999759
0.999768
0.999778
0.999788
0.999798
0.999808
0.999819
0.999829
0.999839
0.999849
0.999733
0.999743
0.999752
0.999761
0.99977
0.99978
0.99979
0.9998
0.99981
0.99982
0.99983
0.99984
0.999851
0.999732
0.999742
0.999751
0.99976
0.999769
0.999779
0.999789
0.9998
0.99981
0.99982
0.999831
0.999841
0.999852
0.999731
0.999741
0.99975
0.999759
0.999769
0.999779
0.999789
0.999799
0.99981
0.99982
0.999831
0.999842
0.999853
0.99973
0.999739
0.999749
0.999758
0.999768
0.999778
0.999789
0.999799
0.99981
0.999821
0.999832
0.999843
0.999854
0.999728
0.999738
0.999748
0.999757
0.999767
0.999778
0.999789
0.999799
0.99981
0.999821
0.999833
0.999844
0.999857
0.999726
0.999736
0.999746
0.999756
0.999767
0.999778
0.999789
0.9998
0.999811
0.999823
0.999835
0.999847
0.999859
0.999723
0.999733
0.999744
0.999755
0.999766
0.999777
0.999789
0.999801
0.999813
0.999825
0.999837
0.99985
0.999864
0.999718
0.99973
0.999742
0.999754
0.999765
0.999777
0.99979
0.999802
0.999814
0.999827
0.999841
0.999855
0.999869
0.999713
0.999726
0.999739
0.999752
0.999765
0.999777
0.99979
0.999803
0.999817
0.999831
0.999845
0.999861
0.999876
0.999706
0.999721
0.999735
0.99975
0.999764
0.999778
0.999791
0.999805
0.999819
0.999834
0.999851
0.999868
0.999886
0.999694
0.999712
0.999732
0.999749
0.999764
0.999778
0.999792
0.999807
0.999822
0.999838
0.999857
0.999879
0.9999
0.999703
0.999719
0.999735
0.999751
0.999766
0.99978
0.999794
0.999808
0.999823
0.999839
0.999857
0.999875
0.999893
0.999729
0.999737
0.999746
0.999755
0.999764
0.999775
0.999785
0.999796
0.999807
0.999818
0.999829
0.99984
0.999851
0.999731
0.999739
0.999747
0.999756
0.999766
0.999776
0.999786
0.999797
0.999807
0.999818
0.999829
0.999839
0.99985
0.999733
0.999741
0.999749
0.999758
0.999767
0.999777
0.999787
0.999798
0.999808
0.999819
0.999829
0.999839
0.99985
0.999735
0.999743
0.999751
0.99976
0.999769
0.999779
0.999789
0.999799
0.999809
0.999819
0.99983
0.99984
0.99985
0.999736
0.999745
0.999753
0.999762
0.999771
0.99978
0.99979
0.9998
0.99981
0.999821
0.999831
0.999841
0.999851
0.999738
0.999746
0.999754
0.999763
0.999772
0.999782
0.999792
0.999802
0.999812
0.999822
0.999832
0.999842
0.999851
0.999738
0.999747
0.999756
0.999765
0.999774
0.999783
0.999793
0.999803
0.999813
0.999823
0.999833
0.999843
0.999852
0.999739
0.999747
0.999756
0.999765
0.999775
0.999784
0.999794
0.999804
0.999814
0.999824
0.999834
0.999843
0.999853
0.999738
0.999747
0.999756
0.999765
0.999774
0.999784
0.999794
0.999804
0.999814
0.999824
0.999834
0.999844
0.999854
0.999737
0.999746
0.999755
0.999764
0.999773
0.999783
0.999793
0.999803
0.999814
0.999824
0.999834
0.999844
0.999855
0.999735
0.999744
0.999753
0.999763
0.999772
0.999782
0.999793
0.999803
0.999813
0.999823
0.999834
0.999844
0.999855
0.999733
0.999743
0.999752
0.999762
0.999771
0.999782
0.999792
0.999802
0.999813
0.999823
0.999834
0.999845
0.999856
0.999731
0.999741
0.99975
0.99976
0.99977
0.999781
0.999791
0.999802
0.999813
0.999824
0.999835
0.999846
0.999858
0.999728
0.999738
0.999748
0.999759
0.999769
0.99978
0.999791
0.999802
0.999813
0.999824
0.999836
0.999848
0.999861
0.999725
0.999736
0.999747
0.999757
0.999768
0.999779
0.99979
0.999802
0.999814
0.999825
0.999838
0.99985
0.999863
0.999723
0.999734
0.999744
0.999755
0.999767
0.999778
0.99979
0.999802
0.999814
0.999827
0.999839
0.999852
0.999865
0.999722
0.999731
0.999743
0.999753
0.999765
0.999777
0.99979
0.999803
0.999816
0.999828
0.999841
0.999854
0.999866
0.999724
0.999732
0.99974
0.999751
0.999764
0.999777
0.99979
0.999803
0.999817
0.999831
0.999844
0.999854
0.999865
0.99976
0.999738
0.99974
0.999751
0.999764
0.999777
0.999791
0.999804
0.999818
0.999832
0.999845
0.999849
0.99983
0.999737
0.999745
0.999754
0.999763
0.999772
0.999782
0.999793
0.999803
0.999814
0.999825
0.999836
0.999846
0.999857
0.999739
0.999747
0.999755
0.999764
0.999773
0.999783
0.999793
0.999804
0.999814
0.999825
0.999835
0.999846
0.999856
0.999741
0.999749
0.999757
0.999766
0.999775
0.999784
0.999794
0.999805
0.999815
0.999825
0.999836
0.999846
0.999856
0.999742
0.99975
0.999759
0.999767
0.999776
0.999786
0.999796
0.999806
0.999816
0.999826
0.999836
0.999846
0.999855
0.999744
0.999752
0.99976
0.999769
0.999778
0.999787
0.999797
0.999807
0.999817
0.999826
0.999836
0.999846
0.999856
0.999744
0.999753
0.999761
0.99977
0.999779
0.999788
0.999798
0.999807
0.999817
0.999827
0.999837
0.999846
0.999856
0.999745
0.999753
0.999762
0.99977
0.999779
0.999789
0.999798
0.999808
0.999818
0.999828
0.999838
0.999847
0.999856
0.999744
0.999753
0.999762
0.999771
0.99978
0.999789
0.999799
0.999809
0.999819
0.999828
0.999838
0.999847
0.999857
0.999744
0.999752
0.999761
0.99977
0.999779
0.999789
0.999799
0.999808
0.999818
0.999828
0.999838
0.999847
0.999857
0.999742
0.999751
0.99976
0.999769
0.999778
0.999788
0.999798
0.999808
0.999818
0.999827
0.999837
0.999847
0.999857
0.99974
0.999749
0.999758
0.999768
0.999777
0.999787
0.999796
0.999807
0.999817
0.999826
0.999836
0.999846
0.999856
0.999738
0.999747
0.999756
0.999766
0.999775
0.999785
0.999795
0.999805
0.999815
0.999825
0.999836
0.999846
0.999857
0.999736
0.999745
0.999755
0.999764
0.999774
0.999784
0.999794
0.999804
0.999814
0.999825
0.999835
0.999846
0.999857
0.999733
0.999743
0.999753
0.999762
0.999772
0.999782
0.999793
0.999803
0.999814
0.999824
0.999835
0.999846
0.999858
0.999731
0.999741
0.999751
0.999761
0.99977
0.999781
0.999791
0.999802
0.999813
0.999824
0.999835
0.999846
0.999858
0.999732
0.999741
0.99975
0.999759
0.999768
0.999779
0.99979
0.999801
0.999813
0.999823
0.999834
0.999844
0.999856
0.999739
0.999744
0.999748
0.999756
0.999766
0.999777
0.999789
0.999801
0.999812
0.999824
0.999833
0.999839
0.999847
0.999766
0.999746
0.999746
0.999754
0.999764
0.999776
0.999788
0.9998
0.999813
0.999825
0.999834
0.999836
0.999819
0.999797
0.999748
0.999745
0.999752
0.999763
0.999775
0.999788
0.999801
0.999814
0.999826
0.999835
0.999835
0.999788
0.999745
0.999753
0.999762
0.999771
0.99978
0.99979
0.999801
0.999811
0.999822
0.999833
0.999844
0.999854
0.999864
0.999746
0.999755
0.999763
0.999772
0.999781
0.999791
0.999801
0.999811
0.999822
0.999833
0.999843
0.999853
0.999863
0.999748
0.999756
0.999764
0.999773
0.999782
0.999792
0.999802
0.999812
0.999822
0.999833
0.999843
0.999853
0.999862
0.999749
0.999758
0.999766
0.999774
0.999783
0.999793
0.999802
0.999813
0.999823
0.999833
0.999843
0.999852
0.999862
0.99975
0.999759
0.999767
0.999775
0.999784
0.999794
0.999803
0.999813
0.999823
0.999833
0.999843
0.999852
0.999861
0.999751
0.999759
0.999767
0.999776
0.999785
0.999794
0.999804
0.999814
0.999824
0.999833
0.999843
0.999852
0.999861
0.999751
0.999759
0.999768
0.999776
0.999785
0.999795
0.999804
0.999814
0.999824
0.999834
0.999843
0.999852
0.999861
0.99975
0.999759
0.999767
0.999776
0.999785
0.999794
0.999804
0.999814
0.999824
0.999833
0.999843
0.999852
0.999861
0.999749
0.999758
0.999766
0.999775
0.999784
0.999794
0.999803
0.999813
0.999823
0.999833
0.999842
0.999851
0.99986
0.999747
0.999756
0.999765
0.999774
0.999783
0.999792
0.999802
0.999812
0.999822
0.999831
0.999841
0.99985
0.999859
0.999745
0.999754
0.999763
0.999772
0.999781
0.999791
0.9998
0.99981
0.99982
0.99983
0.999839
0.999848
0.999858
0.999743
0.999752
0.999761
0.99977
0.999779
0.999789
0.999798
0.999808
0.999818
0.999828
0.999837
0.999847
0.999857
0.99974
0.999749
0.999758
0.999767
0.999777
0.999786
0.999796
0.999806
0.999816
0.999826
0.999836
0.999846
0.999856
0.999738
0.999747
0.999756
0.999765
0.999775
0.999784
0.999794
0.999804
0.999815
0.999824
0.999835
0.999845
0.999856
0.999735
0.999745
0.999754
0.999763
0.999772
0.999782
0.999792
0.999803
0.999813
0.999823
0.999833
0.999844
0.999855
0.999734
0.999743
0.999751
0.99976
0.99977
0.99978
0.99979
0.999801
0.999811
0.999821
0.999832
0.999842
0.999853
0.999735
0.999742
0.99975
0.999758
0.999767
0.999777
0.999788
0.999799
0.99981
0.99982
0.99983
0.99984
0.999849
0.99974
0.999746
0.999749
0.999755
0.999764
0.999775
0.999786
0.999798
0.999809
0.99982
0.999828
0.999833
0.999842
0.999776
0.99975
0.999747
0.999753
0.999762
0.999774
0.999785
0.999798
0.99981
0.999821
0.999828
0.999827
0.999805
0.999752
0.99976
0.999769
0.999778
0.999788
0.999798
0.999808
0.999819
0.99983
0.999841
0.999852
0.999862
0.999872
0.999753
0.999762
0.99977
0.999779
0.999788
0.999798
0.999808
0.999819
0.99983
0.999841
0.999851
0.999861
0.999871
0.999755
0.999763
0.999771
0.99978
0.999789
0.999799
0.999809
0.999819
0.99983
0.99984
0.999851
0.99986
0.99987
0.999756
0.999764
0.999772
0.999781
0.99979
0.999799
0.999809
0.999819
0.99983
0.99984
0.99985
0.999859
0.999868
0.999757
0.999765
0.999773
0.999782
0.99979
0.9998
0.99981
0.99982
0.99983
0.99984
0.99985
0.999859
0.999868
0.999757
0.999765
0.999773
0.999782
0.999791
0.9998
0.99981
0.99982
0.99983
0.99984
0.999849
0.999858
0.999867
0.999756
0.999765
0.999773
0.999782
0.999791
0.9998
0.99981
0.99982
0.99983
0.99984
0.999849
0.999858
0.999866
0.999756
0.999764
0.999772
0.999781
0.99979
0.9998
0.999809
0.999819
0.999829
0.999839
0.999848
0.999857
0.999865
0.999754
0.999762
0.999771
0.99978
0.999789
0.999798
0.999808
0.999818
0.999828
0.999838
0.999847
0.999855
0.999864
0.999752
0.999761
0.999769
0.999778
0.999787
0.999797
0.999806
0.999816
0.999826
0.999835
0.999845
0.999853
0.999862
0.99975
0.999758
0.999767
0.999776
0.999785
0.999794
0.999804
0.999814
0.999823
0.999833
0.999842
0.999851
0.99986
0.999747
0.999756
0.999764
0.999773
0.999782
0.999792
0.999801
0.999811
0.999821
0.99983
0.999839
0.999848
0.999858
0.999744
0.999753
0.999761
0.99977
0.999779
0.999789
0.999798
0.999808
0.999818
0.999827
0.999837
0.999846
0.999856
0.999741
0.99975
0.999759
0.999768
0.999777
0.999786
0.999796
0.999806
0.999815
0.999825
0.999835
0.999844
0.999855
0.999738
0.999747
0.999756
0.999765
0.999774
0.999783
0.999793
0.999803
0.999813
0.999822
0.999832
0.999842
0.999853
0.999736
0.999744
0.999753
0.999761
0.999771
0.99978
0.99979
0.9998
0.99981
0.99982
0.99983
0.99984
0.999851
0.999735
0.999743
0.99975
0.999759
0.999767
0.999777
0.999787
0.999798
0.999808
0.999818
0.999828
0.999838
0.999848
0.999737
0.999741
0.999749
0.999756
0.999765
0.999774
0.999785
0.999796
0.999806
0.999816
0.999825
0.999835
0.999842
0.999742
0.999746
0.999747
0.999753
0.999762
0.999773
0.999784
0.999795
0.999806
0.999816
0.999824
0.999828
0.999834
0.999758
0.999766
0.999775
0.999785
0.999794
0.999805
0.999816
0.999827
0.999839
0.99985
0.999861
0.999872
0.999881
0.999759
0.999767
0.999776
0.999785
0.999795
0.999805
0.999815
0.999827
0.999838
0.999849
0.99986
0.99987
0.99988
0.99976
0.999768
0.999777
0.999786
0.999795
0.999805
0.999816
0.999826
0.999837
0.999848
0.999859
0.999869
0.999878
0.999761
0.999769
0.999778
0.999786
0.999796
0.999805
0.999816
0.999826
0.999837
0.999848
0.999858
0.999868
0.999876
0.999762
0.99977
0.999778
0.999787
0.999796
0.999806
0.999816
0.999826
0.999837
0.999847
0.999857
0.999866
0.999875
0.999762
0.99977
0.999778
0.999787
0.999796
0.999806
0.999816
0.999826
0.999837
0.999847
0.999857
0.999865
0.999874
0.999761
0.999769
0.999778
0.999786
0.999796
0.999805
0.999815
0.999826
0.999836
0.999846
0.999856
0.999864
0.999873
0.99976
0.999768
0.999777
0.999786
0.999795
0.999805
0.999815
0.999825
0.999835
0.999845
0.999854
0.999863
0.999871
0.999758
0.999767
0.999775
0.999784
0.999793
0.999803
0.999813
0.999823
0.999833
0.999843
0.999852
0.999861
0.999869
0.999756
0.999765
0.999773
0.999782
0.999791
0.999801
0.999811
0.999821
0.999831
0.99984
0.999849
0.999858
0.999866
0.999754
0.999762
0.99977
0.999779
0.999788
0.999798
0.999808
0.999818
0.999827
0.999837
0.999846
0.999854
0.999863
0.999751
0.999759
0.999768
0.999776
0.999785
0.999795
0.999804
0.999814
0.999824
0.999833
0.999842
0.999851
0.999859
0.999748
0.999756
0.999764
0.999773
0.999782
0.999791
0.999801
0.99981
0.99982
0.999829
0.999838
0.999847
0.999857
0.999744
0.999753
0.999761
0.99977
0.999779
0.999788
0.999797
0.999807
0.999816
0.999826
0.999835
0.999844
0.999854
0.999741
0.999749
0.999758
0.999766
0.999775
0.999784
0.999794
0.999803
0.999813
0.999822
0.999832
0.999842
0.999852
0.999738
0.999746
0.999754
0.999763
0.999771
0.999781
0.99979
0.9998
0.99981
0.999819
0.999829
0.999839
0.999849
0.999735
0.999743
0.999751
0.999759
0.999768
0.999777
0.999787
0.999797
0.999807
0.999816
0.999826
0.999836
0.999846
0.999733
0.999741
0.999748
0.999756
0.999765
0.999774
0.999784
0.999794
0.999804
0.999814
0.999824
0.999834
0.999844
0.99973
0.999739
0.999746
0.999753
0.999762
0.999772
0.999782
0.999793
0.999804
0.999813
0.999823
0.999832
0.999843
0.999762
0.99977
0.999779
0.999789
0.999799
0.99981
0.999822
0.999834
0.999846
0.999858
0.99987
0.999881
0.999891
0.999763
0.999771
0.99978
0.99979
0.999799
0.99981
0.999821
0.999833
0.999845
0.999857
0.999869
0.999879
0.999888
0.999764
0.999772
0.999781
0.99979
0.9998
0.99981
0.999821
0.999833
0.999845
0.999856
0.999867
0.999877
0.999886
0.999765
0.999773
0.999781
0.999791
0.9998
0.999811
0.999821
0.999833
0.999844
0.999855
0.999866
0.999876
0.999884
0.999765
0.999773
0.999782
0.999791
0.999801
0.999811
0.999821
0.999832
0.999844
0.999854
0.999865
0.999874
0.999883
0.999765
0.999773
0.999782
0.999791
0.999801
0.999811
0.999821
0.999832
0.999843
0.999854
0.999864
0.999873
0.999881
0.999765
0.999773
0.999781
0.99979
0.9998
0.99981
0.999821
0.999832
0.999842
0.999853
0.999863
0.999871
0.999879
0.999764
0.999772
0.99978
0.999789
0.999799
0.999809
0.99982
0.99983
0.999841
0.999851
0.999861
0.999869
0.999877
0.999762
0.99977
0.999779
0.999788
0.999797
0.999807
0.999818
0.999828
0.999839
0.999849
0.999858
0.999866
0.999874
0.99976
0.999768
0.999776
0.999785
0.999795
0.999805
0.999815
0.999825
0.999835
0.999845
0.999854
0.999863
0.99987
0.999757
0.999765
0.999774
0.999782
0.999792
0.999801
0.999811
0.999821
0.999831
0.99984
0.99985
0.999858
0.999866
0.999754
0.999762
0.99977
0.999779
0.999788
0.999798
0.999807
0.999817
0.999827
0.999836
0.999845
0.999853
0.999862
0.999751
0.999759
0.999767
0.999776
0.999784
0.999794
0.999803
0.999813
0.999822
0.999831
0.99984
0.999849
0.999858
0.999747
0.999755
0.999764
0.999772
0.999781
0.99979
0.999799
0.999808
0.999818
0.999827
0.999836
0.999845
0.999854
0.999743
0.999752
0.99976
0.999768
0.999777
0.999786
0.999795
0.999804
0.999814
0.999823
0.999832
0.999841
0.999851
0.999739
0.999748
0.999756
0.999764
0.999772
0.999781
0.999791
0.9998
0.99981
0.999819
0.999828
0.999838
0.999848
0.999736
0.999744
0.999752
0.99976
0.999768
0.999777
0.999787
0.999796
0.999806
0.999815
0.999825
0.999835
0.999845
0.999732
0.99974
0.999748
0.999756
0.999765
0.999774
0.999783
0.999793
0.999803
0.999813
0.999823
0.999833
0.999844
0.999727
0.999736
0.999745
0.999753
0.999762
0.999771
0.999781
0.999792
0.999802
0.999812
0.999822
0.999833
0.999845
0.999764
0.999772
0.999782
0.999792
0.999803
0.999814
0.999827
0.999839
0.999853
0.999866
0.999878
0.99989
0.9999
0.999765
0.999773
0.999782
0.999792
0.999803
0.999814
0.999826
0.999839