# vtk DataFile Version 2.0
I need something to put here
ASCII

DATASET STRUCTURED_GRID
DIMENSIONS 14 20 40
POINTS 11200 float
0.000000 0.500000 0.000000
0.025000 0.500000 0.000000
0.050000 0.500000 0.000000
0.075000 0.500000 0.000000
0.100000 0.500000 0.000000
0.125000 0.500000 0.000000
0.150000 0.500000 0.000000
0.175000 0.500000 0.000000
0.200000 0.500000 0.000000
0.225000 0.500000 0.000000
0.250000 0.500000 0.000000
0.275000 0.500000 0.000000
0.300000 0.500000 0.000000
0.325000 0.500000 0.000000
0.000000 0.525000 0.000000
0.025000 0.525000 0.000000
0.050000 0.525000 0.000000
0.075000 0.525000 0.000000
0.100000 0.525000 0.000000
0.125000 0.525000 0.000000
0.150000 0.525000 0.000000
0.175000 0.525000 0.000000
0.200000 0.525000 0.000000
0.225000 0.525000 0.000000
0.250000 0.525000 0.000000
0.275000 0.525000 0.000000
0.300000 0.525000 0.000000
0.325000 0.525000 0.000000
0.000000 0.550000 0.000000
0.025000 0.550000 0.000000
0.050000 0.550000 0.000000
0.075000 0.550000 0.000000
0.100000 0.550000 0.000000
0.125000 0.550000 0.000000
0.150000 0.550000 0.000000
0.175000 0.550000 0.000000
0.200000 0.550000 0.000000
0.225000 0.550000 0.000000
0.250000 0.550000 0.000000
0.275000 0.550000 0.000000
0.300000 0.550000 0.000000
0.325000 0.550000 0.000000
0.000000 0.575000 0.000000
0.025000 0.575000 0.000000
0.050000 0.575000 0.000000
0.075000 0.575000 0.000000
0.100000 0.575000 0.000000
0.125000 0.575000 0.000000
0.150000 0.575000 0.000000
0.175000 0.575000 0.000000
0.200000 0.575000 0.000000
0.225000 0.575000 0.000000
0.250000 0.575000 0.000000
0.275000 0.575000 0.000000
0.300000 0.575000 0.000000
0.325000 0.575000 0.000000
0.000000 0.600000 0.000000
0.025000 0.600000 0.000000
0.050000 0.600000 0.000000
0.075000 0.600000 0.000000
0.100000 0.600000 0.000000
0.125000 0.600000 0.000000
0.150000 0.600000 0.000000
0.175000 0.600000 0.000000
0.200000 0.600000 0.000000
0.225000 0.600000 0.000000
0.250000 0.600000 0.000000
0.275000 0.600000 0.000000
0.300000 0.600000 0.000000
0.325000 0.600000 0.000000
0.000000 0.625000 0.000000
0.025000 0.625000 0.000000
0.050000 0.625000 0.000000
0.075000 0.625000 0.000000
0.100000 0.625000 0.000000
0.125000 0.625000 0.000000
0.150000 0.625000 0.000000
0.175000 0.625000 0.000000
0.200000 0.625000 0.000000
0.225000 0.625000 0.000000
0.250000 0.625000 0.000000
0.275000 0.625000 0.000000
0.300000 0.625000 0.000000
0.325000 0.625000 0.000000
0.000000 0.650000 0.000000
0.025000 0.650000 0.000000
0.050000 0.650000 0.000000
0.075000 0.650000 0.000000
0.100000 0.650000 0.000000
0.125000 0.650000 0.000000
0.150000 0.650000 0.000000
0.175000 0.650000 0.000000
0.200000 0.650000 0.000000
0.225000 0.650000 0.000000
0.250000 0.650000 0.000000
0.275000 0.650000 0.000000
0.300000 0.650000 0.000000
0.325000 0.650000 0.000000
0.000000 0.675000 0.000000
0.025000 0.675000 0.000000
0.050000 0.675000 0.000000
0.075000 0.675000 0.000000
0.100000 0.675000 0.000000
0.125000 0.675000 0.000000
0.150000 0.675000 0.000000
0.175000 0.675000 0.000000
0.200000 0.675000 0.000000
0.225000 0.675000 0.000000
0.250000 0.675000 0.000000
0.275000 0.675000 0.000000
0.300000 0.675000 0.000000
0.325000 0.675000 0.000000
0.000000 0.700000 0.000000
0.025000 0.700000 0.000000
0.050000 0.700000 0.000000
0.075000 0.700000 0.000000
0.100000 0.700000 0.000000
0.125000 0.700000 0.000000
0.150000 0.700000 0.000000
0.175000 0.700000 0.000000
0.200000 0.700000 0.000000
0.225000 0.700000 0.000000
0.250000 0.700000 0.000000
0.275000 0.700000 0.000000
0.300000 0.700000 0.000000
0.325000 0.700000 0.000000
0.000000 0.725000 0.000000
0.025000 0.725000 0.000000
0.050000 0.725000 0.000000
0.075000 0.725000 0.000000
0.100000 0.725000 0.000000
0.125000 0.725000 0.000000
0.150000 0.725000 0.000000
0.175000 0.725000 0.000000
0.200000 0.725000 0.000000
0.225000 0.725000 0.000000
0.250000 0.725000 0.000000
0.275000 0.725000 0.000000
0.300000 0.725000 0.000000
0.325000 0.725000 0.000000
0.000000 0.750000 0.000000
0.025000 0.750000 0.000000
0.050000 0.750000 0.000000
0.075000 0.750000 0.000000
0.100000 0.750000 0.000000
0.125000 0.750000 0.000000
0.150000 0.750000 0.000000
0.175000 0.750000 0.000000
0.200000 0.750000 0.000000
0.225000 0.750000 0.000000
0.250000 0.750000 0.000000
0.275000 0.750000 0.000000
0.300000 0.750000 0.000000
0.325000 0.750000 0.000000
0.000000 0.775000 0.000000
0.025000 0.775000 0.000000
0.050000 0.775000 0.000000
0.075000 0.775000 0.000000
0.100000 0.775000 0.000000
0.125000 0.775000 0.000000
0.150000 0.775000 0.000000
0.175000 0.775000 0.000000
0.200000 0.775000 0.000000
0.225000 0.775000 0.000000
0.250000 0.775000 0.000000
0.275000 0.775000 0.000000
0.300000 0.775000 0.000000
0.325000 0.775000 0.000000
0.000000 0.800000 0.000000
0.025000 0.800000 0.000000
0.050000 0.800000 0.000000
0.075000 0.800000 0.000000
0.100000 0.800000 0.000000
0.125000 0.800000 0.000000
0.150000 0.800000 0.000000
0.175000 0.800000 0.000000
0.200000 0.800000 0.000000
0.225000 0.800000 0.000000
0.250000 0.800000 0.000000
0.275000 0.800000 0.000000
0.300000 0.800000 0.000000
0.325000 0.800000 0.000000
0.000000 0.825000 0.000000
0.025000 0.825000 0.000000
0.050000 0.825000 0.000000
0.075000 0.825000 0.000000
0.100000 0.825000 0.000000
0.125000 0.825000 0.000000
0.150000 0.825000 0.000000
0.175000 0.825000 0.000000
0.200000 0.825000 0.000000
0.225000 0.825000 0.000000
0.250000 0.825000 0.000000
0.275000 0.825000 0.000000
0.300000 0.825000 0.000000
0.325000 0.825000 0.000000
0.000000 0.850000 0.000000
0.025000 0.850000 0.000000
0.050000 0.850000 0.000000
0.075000 0.850000 0.000000
0.100000 0.850000 0.000000
0.125000 0.850000 0.000000
0.150000 0.850000 0.000000
0.175000 0.850000 0.000000
0.200000 0.850000 0.000000
0.225000 0.850000 0.000000
0.250000 0.850000 0.000000
0.275000 0.850000 0.000000
0.300000 0.850000 0.000000
0.325000 0.850000 0.000000
0.000000 0.875000 0.000000
0.025000 0.875000 0.000000
0.050000 0.875000 0.000000
0.075000 0.875000 0.000000
0.100000 0.875000 0.000000
0.125000 0.875000 0.000000
0.150000 0.875000 0.000000
0.175000 0.875000 0.000000
0.200000 0.875000 0.000000
0.225000 0.875000 0.000000
0.250000 0.875000 0.000000
0.275000 0.875000 0.000000
0.300000 0.875000 0.000000
0.325000 0.875000 0.000000
0.000000 0.900000 0.000000
0.025000 0.900000 0.000000
0.050000 0.900000 0.000000
0.075000 0.900000 0.000000
0.100000 0.900000 0.000000
0.125000 0.900000 0.000000
0.150000 0.900000 0.000000
0.175000 0.900000 0.000000
0.200000 0.900000 0.000000
0.225000 0.900000 0.000000
0.250000 0.900000 0.000000
0.275000 0.900000 0.000000
0.300000 0.900000 0.000000
0.325000 0.900000 0.000000
0.000000 0.925000 0.000000
0.025000 0.925000 0.000000
0.050000 0.925000 0.000000
0.075000 0.925000 0.000000
0.100000 0.925000 0.000000
0.125000 0.925000 0.000000
0.150000 0.925000 0.000000
0.175000 0.925000 0.000000
0.200000 0.925000 0.000000
0.225000 0.925000 0.000000
0.250000 0.925000 0.000000
0.275000 0.925000 0.000000
0.300000 0.925000 0.000000
0.325000 0.925000 0.000000
0.000000 0.950000 0.000000
0.025000 0.950000 0.000000
0.050000 0.950000 0.000000
0.075000 0.950000 0.000000
0.100000 0.950000 0.000000
0.125000 0.950000 0.000000
0.150000 0.950000 0.000000
0.175000 0.950000 0.000000
0.200000 0.950000 0.000000
0.225000 0.950000 0.000000
0.250000 0.950000 0.000000
0.275000 0.950000 0.000000
0.300000 0.950000 0.000000
0.325000 0.950000 0.000000
0.000000 0.975000 0.000000
0.025000 0.975000 0.000000
0.050000 0.975000 0.000000
0.075000 0.975000 0.000000
0.100000 0.975000 0.000000
0.125000 0.975000 0.000000
0.150000 0.975000 0.000000
0.175000 0.975000 0.000000
0.200000 0.975000 0.000000
0.225000 0.975000 0.000000
0.250000 0.975000 0.000000
0.275000 0.975000 0.000000
0.300000 0.975000 0.000000
0.325000 0.975000 0.000000
0.000000 0.500000 0.025000
0.025000 0.500000 0.025000
0.050000 0.500000 0.025000
0.075000 0.500000 0.025000
0.100000 0.500000 0.025000
0.125000 0.500000 0.025000
0.150000 0.500000 0.025000
0.175000 0.500000 0.025000
0.200000 0.500000 0.025000
0.225000 0.500000 0.025000
0.250000 0.500000 0.025000
0.275000 0.500000 0.025000
0.300000 0.500000 0.025000
0.325000 0.500000 0.025000
0.000000 0.525000 0.025000
0.025000 0.525000 0.025000
0.050000 0.525000 0.025000
0.075000 0.525000 0.025000
0.100000 0.525000 0.025000
0.125000 0.525000 0.025000
0.150000 0.525000 0.025000
0.175000 0.525000 0.025000
0.200000 0.525000 0.025000
0.225000 0.525000 0.025000
0.250000 0.525000 0.025000
0.275000 0.525000 0.025000
0.300000 0.525000 0.025000
0.325000 0.525000 0.025000
0.000000 0.550000 0.025000
0.025000 0.550000 0.025000
0.050000 0.550000 0.025000
0.075000 0.550000 0.025000
0.100000 0.550000 0.025000
0.125000 0.550000 0.025000
0.150000 0.550000 0.025000
0.175000 0.550000 0.025000
0.200000 0.550000 0.025000
0.225000 0.550000 0.025000
0.250000 0.550000 0.025000
0.275000 0.550000 0.025000
0.300000 0.550000 0.025000
0.325000 0.550000 0.025000
0.000000 0.575000 0.025000
0.025000 0.575000 0.025000
0.050000 0.575000 0.025000
0.075000 0.575000 0.025000
0.100000 0.575000 0.025000
0.125000 0.575000 0.025000
0.150000 0.575000 0.025000
0.175000 0.575000 0.025000
0.200000 0.575000 0.025000
0.225000 0.575000 0.025000
0.250000 0.575000 0.025000
0.275000 0.575000 0.025000
0.300000 0.575000 0.025000
0.325000 0.575000 0.025000
0.000000 0.600000 0.025000
0.025000 0.600000 0.025000
0.050000 0.600000 0.025000
0.075000 0.600000 0.025000
0.100000 0.600000 0.025000
0.125000 0.600000 0.025000
0.150000 0.600000 0.025000
0.175000 0.600000 0.025000
0.200000 0.600000 0.025000
0.225000 0.600000 0.025000
0.250000 0.600000 0.025000
0.275000 0.600000 0.025000
0.300000 0.600000 0.025000
0.325000 0.600000 0.025000
0.000000 0.625000 0.025000
0.025000 0.625000 0.025000
0.050000 0.625000 0.025000
0.075000 0.625000 0.025000
0.100000 0.625000 0.025000
0.125000 0.625000 0.025000
0.150000 0.625000 0.025000
0.175000 0.625000 0.025000
0.200000 0.625000 0.025000
0.225000 0.625000 0.025000
0.250000 0.625000 0.025000
0.275000 0.625000 0.025000
0.300000 0.625000 0.025000
0.325000 0.625000 0.025000
0.000000 0.650000 0.025000
[...]
CELL_DATA 9633
SCALARS density float 1
LOOKUP_TABLE default
0.999732
0.999751
0.999755
0.999759
0.999764
0.99977
0.999775
0.999779
0.999783
0.999787
0.999792
0.999797
0.999803
0.999711
0.999731
0.999742
0.999751
0.999759
0.999767
0.999771
0.999776
0.99978
0.999785
0.999791
0.999797
0.999803
0.999715
0.999724
0.999736
0.999746
0.999756
0.999765
0.99977
0.999775
0.99978
0.999786
0.999792
0.999798
0.999804
0.999718
0.999724
0.999733
0.999744
0.999755
0.999764
0.99977
0.999775
0.999781
0.999786
0.999793
0.999799
0.999806
0.999722
0.999725
0.999733
0.999744
0.999755
0.999764
0.99977
0.999776
0.999781
0.999788
0.999794
0.9998
0.999807
0.999724
0.999728
0.999736
0.999747
0.999757
0.999765
0.999771
0.999776
0.999781
0.999788
0.999795
0.999801
0.999807
0.999727
0.999733
0.999741
0.999751
0.99976
0.999768
0.999772
0.999777
0.999782
0.999789
0.999796
0.999802
0.999807
0.999732
0.999738
0.999752
0.999759
0.999764
0.99977
0.999774
0.999778
0.999784
0.99979
0.999796
0.999802
0.999806
0.999716
0.999767
0.999771
0.999768
0.999769
0.999772
0.999775
0.999779
0.999783
0.999791
0.999797
0.999802
0.999808
0.999876
0.999827
0.999794
0.99978
0.999774
0.999774
0.999774
0.999776
0.99978
0.99979
0.999797
0.999803
0.999809
0.999871
0.99986
0.999814
0.999789
0.999779
0.999777
0.999775
0.999777
0.99978
0.999791
0.999797
0.999803
0.999809
0.999882
0.999864
0.999825
0.999796
0.999783
0.999778
0.999777
0.999778
0.999782
0.999791
0.999797
0.999803
0.999809
0.999877
0.999868
0.999828
0.999799
0.999784
0.999779
0.999777
0.999779
0.999783
0.999791
0.999796
0.999802
0.999808
0.999868
0.999867
0.999828
0.9998
0.999784
0.999778
0.999777
0.999778
0.999782
0.999789
0.999794
0.999799
0.999804
0.999862
0.999864
0.999828
0.999799
0.999784
0.999779
0.999777
0.999779
0.999781
0.999788
0.999791
0.999793
0.999796
0.99986
0.999863
0.999823
0.999797
0.999785
0.99978
0.999779
0.99978
0.999783
0.999787
0.999787
0.999781
0.999777
0.999871
0.999844
0.999814
0.999795
0.999786
0.999782
0.999781
0.999782
0.999785
0.999788
0.999784
0.999767
0.999731
0.999748
0.9998
0.999803
0.999795
0.999789
0.999785
0.999784
0.999785
0.999787
0.999789
0.999784
0.99976
0.999673
0.999781
0.999786
0.999798
0.999797
0.999792
0.999789
0.999788
0.999788
0.999789
0.999791
0.999786
0.999759
0.999665
0.9997
0.999735
0.999742
0.999746
0.999751
0.999757
0.999763
0.999769
0.999774
0.99978
0.999787
0.999793
0.9998
0.999694
0.99972
0.999734
0.999743
0.999751
0.999759
0.999765
0.999771
0.999777
0.999783
0.999789
0.999795
0.999802
0.9997
0.999717
0.99973
0.999741
0.99975
0.999759
0.999766
0.999772
0.999778
0.999784
0.999791
0.999797
0.999804
0.999705
0.999717
0.999728
0.99974
0.99975
0.999759
0.999767
0.999773
0.999779
0.999786
0.999792
0.999799
0.999805
0.999709
0.999719
0.99973
0.999741
0.999751
0.99976
0.999768
0.999774
0.999781
0.999787
0.999793
0.9998
0.999807
0.999712
0.999722
0.999734
0.999745
0.999754
0.999762
0.999769
0.999775
0.999782
0.999788
0.999794
0.999801
0.999808
0.999713
0.99973
0.999743
0.999751
0.999757
0.999765
0.999771
0.999777
0.999783
0.999789
0.999796
0.999802
0.999809
0.999721
0.999757
0.999757
0.999759
0.999762
0.999768
0.999773
0.999778
0.999784
0.99979
0.999796
0.999803
0.999811
0.99982
0.999798
0.999776
0.999769
0.999768
0.999771
0.999774
0.999779
0.999784
0.999791
0.999797
0.999803
0.99981
1.00003
0.999849
0.999799
0.99978
0.999774
0.999773
0.999775
0.999779
0.999784
0.99979
0.999797
0.999803
0.99981
1.00016
0.999896
0.999818
0.99979
0.999779
0.999776
0.999777
0.99978
0.999784
0.999791
0.999797
0.999803
0.99981
1.00018
0.99993
0.999834
0.999798
0.999783
0.999779
0.999778
0.99978
0.999785
0.999791
0.999797
0.999803
0.999809
1.00018
0.999937
0.999843
0.999803
0.999786
0.99978
0.999779
0.999781
0.999785
0.999791
0.999796
0.999802
0.999808
1.00018
0.999938
0.999845
0.999804
0.999787
0.999781
0.99978
0.999781
0.999785
0.99979
0.999795
0.9998
0.999805
1.00018
0.999935
0.99984
0.999803
0.999787
0.999782
0.99978
0.999782
0.999785
0.999789
0.999793
0.999796
0.999799
1.00018
0.999913
0.999832
0.999801
0.999788
0.999783
0.999781
0.999783
0.999785
0.999788
0.999789
0.99979
0.99979
1.00009
0.999881
0.999821
0.999799
0.999789
0.999784
0.999783
0.999784
0.999786
0.999788
0.999786
0.99978
0.999776
0.999887
0.999848
0.999817
0.9998
0.999791
0.999787
0.999785
0.999786
0.999787
0.999789
0.999784
0.999768
0.999733
0.999772
0.999819
0.999812
0.999801
0.999793
0.999789
0.999788
0.999788
0.999789
0.99979
0.999786
0.999768
0.999731
0.99969
0.999727
0.999738
0.999741
0.999746
0.999752
0.999759
0.999766
0.999772
0.999778
0.999785
0.999792
0.999799
0.999679
0.999712
0.999727
0.999739
0.999747
0.999754
0.999762
0.999769
0.999775
0.999781
0.999788
0.999794
0.999802
0.999687
0.999708
0.999725
0.999736
0.999746
0.999755
0.999763
0.99977
0.999777
0.999783
0.99979
0.999796
0.999803
0.999693
0.99971
0.999723
0.999736
0.999747
0.999756
0.999765
0.999772
0.999779
0.999785
0.999791
0.999798
0.999805
0.999697
0.999712
0.999726
0.999737
0.999748
0.999757
0.999766
0.999773
0.99978
0.999786
0.999793
0.9998
0.999807
0.999701
0.999716
0.999728
0.99974
0.99975
0.999759
0.999767
0.999775
0.999781
0.999788
0.999794
0.999801
0.999808
0.999702
0.99972
0.999732
0.999744
0.999753
0.999762
0.999769
0.999776
0.999783
0.999789
0.999796
0.999802
0.999809
0.999703
0.99972
0.999739
0.99975
0.999757
0.999764
0.999771
0.999777
0.999784
0.99979
0.999796
0.999803
0.999811
0.999676
0.999735
0.999752
0.999758
0.999762
0.999768
0.999773
0.999779
0.999784
0.999791
0.999797
0.999804
0.999811
0.999767
0.999773
0.999769
0.999767
0.999768
0.999771
0.999775
0.99978
0.999785
0.999791
0.999797
0.999804
0.99981
0.999741
0.999792
0.999783
0.999776
0.999773
0.999774
0.999776
0.999781
0.999786
0.999791
0.999797
0.999804
0.99981
0.999744
0.999792
0.999791
0.999782
0.999777
0.999776
0.999778
0.999781
0.999786
0.999792
0.999798
0.999804
0.99981
0.999745
0.999796
0.999794
0.999785
0.999779
0.999778
0.999779
0.999782
0.999786
0.999792
0.999797
0.999803
0.999809
0.999748
0.999797
0.999795
0.999787
0.999781
0.999779
0.99978
0.999782
0.999786
0.999791
0.999796
0.999802
0.999807
0.999751
0.999797
0.999797
0.999787
0.999781
0.99978
0.99978
0.999783
0.999786
0.999791
0.999795
0.9998
0.999804
0.999751
0.999803
0.999794
0.999787
0.999782
0.999781
0.999781
0.999783
0.999786
0.99979
0.999794
0.999797
0.9998
0.999798
0.999792
0.999791
0.999787
0.999783
0.999782
0.999782
0.999784
0.999787
0.999789
0.999791
0.999793
0.999793
0.999707
0.999789
0.999795
0.999789
0.999786
0.999784
0.999784
0.999786
0.999788
0.99979
0.99979
0.999784
0.999781
0.999752
0.999784
0.999798
0.999795
0.999791
0.999789
0.999788
0.999789
0.999791
0.999793
0.999793
0.999792
0.99979
0.999691
0.999737
0.999737
0.99974
0.999744
0.999751
0.999758
0.999765
0.999772
0.999778
0.999785
0.999792
0.999799
0.999675
0.999704
0.999726
0.999737
0.999745
0.999752
0.99976
0.999767
0.999774
0.99978
0.999787
0.999794
0.999801
0.999675
0.999705
0.99972
0.999735
0.999745
0.999754
0.999762
0.999769
0.999776
0.999783
0.999789
0.999796
0.999803
0.999682
0.999701
0.99972
0.999734
0.999745
0.999755
0.999763
0.999771
0.999778
0.999784
0.999791
0.999798
0.999805
0.999687
0.999708
0.999722
0.999735
0.999746
0.999756
0.999765
0.999773
0.99978
0.999786
0.999793
0.9998
0.999807
0.999692
0.99971
0.999725
0.999737
0.999747
0.999757
0.999766
0.999774
0.999781
0.999788
0.999794
0.999801
0.999808
0.999694
0.999713
0.999727
0.99974
0.99975
0.999759
0.999768
0.999775
0.999782
0.999789
0.999795
0.999802
0.99981
0.999693
0.999716
0.99973
0.999743
0.999753
0.999762
0.99977
0.999777
0.999783
0.99979
0.999797
0.999803
0.999811
0.999693
0.999716
0.999737
0.999749
0.999757
0.999764
0.999771
0.999778
0.999784
0.999791
0.999797
0.999804
0.999811
0.999702
0.999741
0.99975
0.999756
0.999761
0.999767
0.999773
0.999779
0.999785
0.999791
0.999798
0.999804
0.999811
0.999702
0.999743
0.999758
0.999762
0.999765
0.99977
0.999775
0.99978
0.999786
0.999792
0.999798
0.999804
0.999811
0.999699
0.999745
0.99976
0.999766
0.999769
0.999772
0.999776
0.999781
0.999787
0.999792
0.999798
0.999804
0.999811
0.999698
0.999745
0.999762
0.999768
0.999771
0.999774
0.999777
0.999782
0.999787
0.999792
0.999798
0.999804
0.99981
0.999699
0.999746
0.999763
0.999769
0.999772
0.999775
0.999778
0.999782
0.999787
0.999792
0.999798
0.999804
0.99981
0.999698
0.999747
0.999763
0.999771
0.999773
0.999775
0.999778
0.999782
0.999787
0.999792
0.999798
0.999803
0.999809
0.999698
0.999742
0.999767
0.999773
0.999774
0.999776
0.999778
0.999782
0.999786
0.999792
0.999797
0.999803
0.999808
0.999666
0.999759
0.999773
0.999774
0.999774
0.999776
0.999779
0.999782
0.999786
0.999791
0.999796
0.999801
0.999808
0.999786
0.999777
0.999776
0.999776
0.999776
0.999778
0.99978
0.999783
0.999787
0.999791
0.999796
0.999803
0.999809
0.999791
0.999804
0.999789
0.999786
0.999787
0.999788
0.99979
0.999791
0.999794
0.999797
0.999802
0.999813
0.999847
0.99976
0.999741
0.999738
0.999739
0.999744
0.999751
0.999758
0.999765
0.999772
0.999778
0.999785
0.999792
0.9998
0.999646
0.999713
0.999728
0.999737
0.999744
0.999752
0.99976
0.999767
0.999774
0.99978
0.999787
0.999794
0.999802
0.999673
0.999697
0.999723
0.999735
0.999745
0.999753
0.999762
0.999769
0.999776
0.999782
0.999789
0.999796
0.999803
0.99966
0.999699
0.99972
0.999735
0.999745
0.999754
0.999763
0.999771
0.999778
0.999784
0.999791
0.999798
0.999805
0.999684
0.999704
0.999722
0.999735
0.999746
0.999755
0.999764
0.999772
0.999779
0.999786
0.999792
0.999799
0.999807
0.999686
0.999708
0.999724
0.999737
0.999747
0.999757
0.999766
0.999774
0.999781
0.999787
0.999794
0.999801
0.999808
0.999687
0.99971
0.999726
0.999739
0.999749
0.999758
0.999767
0.999775
0.999782
0.999789
0.999795
0.999802
0.99981
0.999689
0.999712
0.999728
0.999741
0.999751
0.99976
0.999769
0.999776
0.999783
0.99979
0.999796
0.999803
0.99981
0.999691
0.999715
0.99973
0.999743
0.999753
0.999762
0.99977
0.999778
0.999784
0.999791
0.999797
0.999804
0.999811
0.999694
0.999721
0.999738
0.999748
0.999756
0.999764
0.999772
0.999779
0.999785
0.999791
0.999798
0.999804
0.999811
0.999699
0.999726
0.999741
0.999752
0.999759
0.999766
0.999773
0.99978
0.999786
0.999792
0.999798
0.999805
0.999811
0.999697
0.999726
0.999743
0.999754
0.999761
0.999768
0.999774
0.99978
0.999786
0.999792
0.999798
0.999805
0.999812
0.99969
0.999724
0.999744
0.999755
0.999763
0.999769
0.999775
0.999781
0.999787
0.999793
0.999799
0.999805
0.999812
0.99969
0.999723
0.999744
0.999757
0.999764
0.99977
0.999776
0.999781
0.999787
0.999793
0.999799
0.999806
0.999812
0.999688
0.999725
0.999749
0.999759
0.999765
0.99977
0.999776
0.999781
0.999787
0.999793
0.9998
0.999806
0.999813
0.999684
0.999743
0.999754
0.99976
0.999765
0.999769
0.999774
0.99978
0.999786
0.999792
0.9998
0.999808
0.999815
0.999758
0.999762
0.999756
0.999758
0.999762
0.999766
0.999771
0.999776
0.999782
0.999789
0.999798
0.999811
0.999824
0.999925
0.999767
0.999747
0.999748
0.999752
0.999757
0.999763
0.999768
0.999774
0.999781
0.999791
0.999808
0.999848
0.999943
0.999753
0.999722
0.999721
0.999725
0.999732
0.999738
0.999745
0.999753
0.999762
0.999774
0.999794
0.999857
0.999797
0.999747
0.999739
0.999741
0.999745
0.999752
0.999759
0.999766
0.999772
0.999778
0.999785
0.999792
0.9998
0.999728
0.999723
0.999734
0.99974
0.999746
0.999753
0.999761
0.999768
0.999774
0.99978
0.999787
0.999794
0.999802
0.999661
0.999717
0.999729
0.999739
0.999747
0.999754
0.999762
0.999769
0.999776
0.999782
0.999789
0.999796
0.999803
0.999654
0.999705
0.999728
0.999739
0.999747
0.999756
0.999764
0.999771
0.999778
0.999784
0.99979
0.999798
0.999805
0.999669
0.999706
0.999726
0.999739
0.999748
0.999757
0.999765
0.999772
0.999779
0.999786
0.999792
0.999799
0.999807
0.999684
0.999709
0.999727
0.999739
0.999749
0.999758
0.999766
0.999774
0.999781
0.999787
0.999794
0.999801
0.999808
0.999686
0.999714
0.999729
0.999741
0.99975
0.999759
0.999767
0.999775
0.999782
0.999788
0.999795
0.999802
0.999809
0.999688
0.999715
0.999731
0.999742
0.999751
0.99976
0.999768
0.999776
0.999783
0.999789
0.999796
0.999803
0.99981
0.999689
0.999714
0.999728
0.999742
0.999752
0.999761
0.999769
0.999777
0.999784
0.99979
0.999797
0.999804
0.999811
0.999697
0.999717
0.999732
0.999744
0.999753
0.999762
0.999771
0.999778
0.999785
0.999791
0.999797
0.999804
0.999811
0.999705
0.999719
0.999734
0.999746
0.999755
0.999764
0.999772
0.999779
0.999785
0.999792
0.999798
0.999805
0.999811
0.999705
0.999719
0.999734
0.999747
0.999756
0.999765
0.999772
0.99978
0.999786
0.999792
0.999798
0.999805
0.999812
0.999693
0.999717
0.999734
0.999747
0.999757
0.999766
0.999773
0.99978
0.999787
0.999793
0.999799
0.999806
0.999812
0.999686
0.999715
0.999734
0.999747
0.999758
0.999766
0.999773
0.99978
0.999787
0.999793
0.9998
0.999806
0.999813
0.999683
0.999713
0.999733
0.999748
0.999758
0.999766
0.999773
0.99978
0.999787
0.999793
0.9998
0.999807
0.999814
0.999678
0.999707
0.999735
0.999749
0.999758
0.999766
0.999773
0.999779
0.999786
0.999793
0.9998
0.999808
0.999816
0.999643
0.999714
0.99974
0.99975
0.999758
0.999764
0.999771
0.999777
0.999784
0.999791
0.9998
0.999809
0.999819
0.999734
0.999745
0.999744
0.999748
0.999755
0.999761
0.999767
0.999774
0.99978
0.999788
0.999798
0.999812
0.999823
0.999722
0.999751
0.999743
0.999745
0.99975
0.999757
0.999763
0.999769
0.999775
0.999784
0.999795
0.999814
0.999854
0.999762
0.999743
0.999742
0.999744
0.999747
0.999753
0.99976
0.999767
0.999773
0.999779
0.999785
0.999792
0.9998
0.999651
0.999735
0.999741
0.999744
0.999749
0.999755
0.999762
0.999768
0.999774
0.99978
0.999787
0.999794
0.999802
0.999688
0.999717
0.999739
0.999745
0.99975
0.999756
0.999763
0.99977
0.999776
0.999782
0.999788
0.999795
0.999803
0.99968
0.999722
0.999736
0.999745
0.99975
0.999757
0.999764
0.999771
0.999778
0.999784
0.99979
0.999797
0.999805
0.999695
0.999725
0.999738
0.999745
0.999751
0.999758
0.999766
0.999773
0.999779
0.999785
0.999792
0.999799
0.999806
0.999695
0.999727
0.999738
0.999746
0.999752
0.999759
0.999767
0.999774
0.999781
0.999787
0.999793
0.9998
0.999808
0.999699
0.999728
0.99974
0.999746
0.999752
0.99976
0.999768
0.999775
0.999782
0.999788
0.999794
0.999801
0.999809
0.9997
0.999733
0.999739
0.999745
0.999752
0.99976
0.999768
0.999776
0.999783
0.999789
0.999795
0.999802
0.99981
0.999694
0.999711
0.999732
0.999744
0.999753
0.999761
0.999769
0.999777
0.999784
0.99979
0.999796
0.999803
0.99981
0.999696
0.999717
0.99973
0.999743
0.999753
0.999762
0.99977
0.999778
0.999784
0.99979
0.999797
0.999804
0.999811
0.999702
0.999718
0.999732
0.999743
0.999753
0.999763
0.999771
0.999778
0.999785
0.999791
0.999797
0.999804
0.999811
0.999699
0.999717
0.999731
0.999744
0.999754
0.999763
0.999771
0.999779
0.999786
0.999792
0.999798
0.999805
0.999812
0.99969
0.999713
0.99973
0.999743
0.999754
0.999763
0.999772
0.999779
0.999786
0.999793
0.999799
0.999806
0.999813
0.999688
0.999711
0.999729
0.999743
0.999754
0.999764
0.999772
0.99978
0.999787
0.999793
0.9998
0.999807
0.999814
0.999687
0.99971
0.999728
0.999743
0.999754
0.999764
0.999772
0.99978
0.999787
0.999794
0.999801
0.999808
0.999815
0.999684
0.99971
0.999728
0.999743
0.999755
0.999764
0.999772
0.99978
0.999787
0.999794
0.999801
0.999809
0.999816
0.999683
0.999707
0.999731
0.999746
0.999756
0.999764
0.999772
0.999779
0.999786
0.999793
0.999801
0.99981
0.999818
0.999691
0.999731
0.999741
0.999749
0.999757
0.999765
0.999772
0.999778
0.999785
0.999793
0.999802
0.999811
0.999822
0.999701
0.999733
0.999746
0.999753
0.99976
0.999767
0.999773
0.999779
0.999785
0.999793
0.999804
0.999819
0.999832
0.999715
0.999751
0.999751
0.999749
0.99975
0.999755
0.999761
0.999767
0.999773
0.999779
0.999785
0.999792
0.9998
0.999783
0.999756
0.999751
0.999749
0.999751
0.999756
0.999762
0.999769
0.999775
0.99978
0.999786
0.999793
0.999801
0.999746
0.999769
0.999754
0.999751
0.999752
0.999758
0.999764
0.99977
0.999776
0.999782
0.999788
0.999795
0.999803
0.999752
0.999761
0.999757
0.999752
0.999754
0.999759
0.999765
0.999772
0.999778
0.999783
0.99979
0.999797
0.999804
0.999753
0.999764
0.999756
0.999754
0.999755
0.99976
0.999766
0.999773
0.999779
0.999785
0.999791
0.999798
0.999806
0.999747
0.999762
0.999757
0.999754
0.999755
0.999761
0.999767
0.999774
0.99978
0.999786
0.999793
0.999799
0.999807
0.999753
0.999766
0.999755
0.999753
0.999755
0.999761
0.999768
0.999775
0.999781
0.999787
0.999794
0.999801
0.999808
0.999781
0.999758
0.99975
0.999751
0.999755
0.999762
0.999769
0.999776
0.999782
0.999788
0.999795
0.999802
0.999809
0.999672
0.999729
0.999743
0.999749
0.999755
0.999762
0.99977
0.999777
0.999783
0.999789
0.999796
0.999802
0.99981
0.999706
0.999717
0.999737
0.999747
0.999755
0.999763
0.99977
0.999777
0.999784
0.99979
0.999796
0.999803
0.99981
0.999704
0.999722
0.999733
0.999745
0.999754
0.999763
0.999771
0.999778
0.999785
0.999791
0.999797
0.999804
0.999811
0.9997
0.999718
0.999733
0.999744
0.999754
0.999763
0.999771
0.999778
0.999785
0.999791
0.999798
0.999805
0.999812
0.999693
0.999714
0.99973
0.999743
0.999753
0.999763
0.999771
0.999779
0.999786
0.999792
0.999799
0.999806
0.999813
0.99969
0.999712
0.999729
0.999742
0.999753
0.999763
0.999771
0.999779
0.999786
0.999793
0.9998
0.999807
0.999814
0.99969
0.999711
0.999728
0.999742
0.999753
0.999763
0.999772
0.99978
0.999787
0.999794
0.999801
0.999808
0.999816
0.999692
0.999711
0.999728
0.999741
0.999753
0.999763
0.999772
0.99978
0.999787
0.999794
0.999802
0.999809
0.999817
0.999695
0.999714
0.999729
0.999744
0.999755
0.999764
0.999773
0.99978
0.999787
0.999795
0.999802
0.99981
0.999818
0.9997
0.999721
0.999737
0.999748
0.999758
0.999766
0.999774
0.999781
0.999788
0.999795
0.999803
0.999812
0.99982
0.999712
0.999727
0.999741
0.999752
0.999761
0.99977
0.999776
0.999782
0.999788
0.999796
0.999805
0.999815
0.999822
0.999788
0.999779
0.99976
0.999752
0.999751
0.999755
0.999761
0.999767
0.999773
0.999778
0.999784
0.999791
0.999799
0.99991
0.999793
0.999761
0.999753
0.999752
0.999757
0.999763
0.999769
0.999774
0.99978
0.999786
0.999793
0.9998
1.00002
0.999815
0.999767
0.999754
0.999754
0.999758
0.999764
0.99977
0.999776
0.999781
0.999787
0.999794
0.999802
1.00004
0.999838
0.999773
0.999757
0.999755
0.999759
0.999765
0.999772
0.999777
0.999783
0.999789
0.999796
0.999803
1.00004
0.999842
0.999778
0.999759
0.999756
0.99976
0.999766
0.999773
0.999779
0.999784
0.99979
0.999797
0.999805
1.00003
0.999841
0.999776
0.999759
0.999757
0.999761
0.999768
0.999774
0.99978
0.999786
0.999792
0.999799
0.999806
1.00002
0.999824
0.999771
0.999758
0.999757
0.999762
0.999769
0.999775
0.999781
0.999787
0.999793
0.9998
0.999807
0.999963
0.999802
0.999763
0.999756
0.999757
0.999763
0.999769
0.999776
0.999782
0.999788
0.999794
0.999801
0.999808
0.999808
0.999776
0.999759
0.999755
0.999757
0.999763
0.99977
0.999777
0.999783
0.999789
0.999795
0.999802
0.999809
0.999712
0.999751
0.999751
0.999753
0.999757
0.999764
0.999771
0.999777
0.999784
0.99979
0.999796
0.999803
0.99981
0.999707
0.999728
0.999744
0.999751
0.999757
0.999764
0.999771
0.999778
0.999784
0.99979
0.999797
0.999804
0.999811
0.999701
0.999723
0.999737
0.999748
0.999755
0.999763
0.999771
0.999778
0.999785
0.999791
0.999798
0.999805
0.999812
0.999693
0.999718
0.999734
0.999746
0.999755
0.999763
0.999771
0.999779
0.999786
0.999792
0.999799
0.999806
0.999813
0.999689
0.999716
0.999732
0.999745
0.999754
0.999763
0.999771
0.999779
0.999786
0.999793
0.9998
0.999808
0.999815
0.999691
0.999715
0.999732
0.999744
0.999754
0.999763
0.999772
0.99978
0.999787
0.999794
0.999802
0.999809
0.999816
0.999695
0.999713
0.999728
0.999742
0.999754
0.999764
0.999772
0.999781
0.999788
0.999795
0.999803
0.99981
0.999817
0.9997
0.999716
0.99973
0.999743
0.999755
0.999765
0.999774
0.999781
0.999789
0.999796
0.999804
0.999811
0.999819
0.999708
0.999721
0.999735
0.999748
0.999758
0.999768
0.999775
0.999782
0.999789
0.999797
0.999805
0.999812
0.999819
0.99972
0.999727
0.99974
0.999752
0.999762
0.999771
0.999778
0.999784
0.99979
0.999797
0.999806
0.999813
0.999819
0.999662
0.999731
0.999743
0.999746
0.999749
0.999754
0.99976
0.999766
0.999772
0.999778
0.999784
0.99979
0.999798
0.999703
0.999735
0.999743
0.999746
0.99975
0.999756
0.999762
0.999768
0.999774