# vtk DataFile Version 2.0
I need something to put here
ASCII

DATASET STRUCTURED_GRID
DIMENSIONS 14 21 40
POINTS 11760 float
0.000000 0.000000 0.000000
0.025000 0.000000 0.000000
0.050000 0.000000 0.000000
0.075000 0.000000 0.000000
0.100000 0.000000 0.000000
0.125000 0.000000 0.000000
0.150000 0.000000 0.000000
0.175000 0.000000 0.000000
0.200000 0.000000 0.000000
0.225000 0.000000 0.000000
0.250000 0.000000 0.000000
0.275000 0.000000 0.000000
0.300000 0.000000 0.000000
0.325000 0.000000 0.000000
0.000000 0.025000 0.000000
0.025000 0.025000 0.000000
0.050000 0.025000 0.000000
0.075000 0.025000 0.000000
0.100000 0.025000 0.000000
0.125000 0.025000 0.000000
0.150000 0.025000 0.000000
0.175000 0.025000 0.000000
0.200000 0.025000 0.000000
0.225000 0.025000 0.000000
0.250000 0.025000 0.000000
0.275000 0.025000 0.000000
0.300000 0.025000 0.000000
0.325000 0.025000 0.000000
0.000000 0.050000 0.000000
0.025000 0.050000 0.000000
0.050000 0.050000 0.000000
0.075000 0.050000 0.000000
0.100000 0.050000 0.000000
0.125000 0.050000 0.000000
0.150000 0.050000 0.000000
0.175000 0.050000 0.000000
0.200000 0.050000 0.000000
0.225000 0.050000 0.000000
0.250000 0.050000 0.000000
0.275000 0.050000 0.000000
0.300000 0.050000 0.000000
0.325000 0.050000 0.000000
0.000000 0.075000 0.000000
0.025000 0.075000 0.000000
0.050000 0.075000 0.000000
0.075000 0.075000 0.000000
0.100000 0.075000 0.000000
0.125000 0.075000 0.000000
0.150000 0.075000 0.000000
0.175000 0.075000 0.000000
0.200000 0.075000 0.000000
0.225000 0.075000 0.000000
0.250000 0.075000 0.000000
0.275000 0.075000 0.000000
0.300000 0.075000 0.000000
0.325000 0.075000 0.000000
0.000000 0.100000 0.000000
0.025000 0.100000 0.000000
0.050000 0.100000 0.000000
0.075000 0.100000 0.000000
0.100000 0.100000 0.000000
0.125000 0.100000 0.000000
0.150000 0.100000 0.000000
0.175000 0.100000 0.000000
0.200000 0.100000 0.000000
0.225000 0.100000 0.000000
0.250000 0.100000 0.000000
0.275000 0.100000 0.000000
0.300000 0.100000 0.000000
0.325000 0.100000 0.000000
0.000000 0.125000 0.000000
0.025000 0.125000 0.000000
0.050000 0.125000 0.000000
0.075000 0.125000 0.000000
0.100000 0.125000 0.000000
0.125000 0.125000 0.000000
0.150000 0.125000 0.000000
0.175000 0.125000 0.000000
0.200000 0.125000 0.000000
0.225000 0.125000 0.000000
0.250000 0.125000 0.000000
0.275000 0.125000 0.000000
0.300000 0.125000 0.000000
0.325000 0.125000 0.000000
0.000000 0.150000 0.000000
0.025000 0.150000 0.000000
0.050000 0.150000 0.000000
0.075000 0.150000 0.000000
0.100000 0.150000 0.000000
0.125000 0.150000 0.000000
0.150000 0.150000 0.000000
0.175000 0.150000 0.000000
0.200000 0.150000 0.000000
0.225000 0.150000 0.000000
0.250000 0.150000 0.000000
0.275000 0.150000 0.000000
0.300000 0.150000 0.000000
0.325000 0.150000 0.000000
0.000000 0.175000 0.000000
0.025000 0.175000 0.000000
0.050000 0.175000 0.000000
0.075000 0.175000 0.000000
0.100000 0.175000 0.000000
0.125000 0.175000 0.000000
0.150000 0.175000 0.000000
0.175000 0.175000 0.000000
0.200000 0.175000 0.000000
0.225000 0.175000 0.000000
0.250000 0.175000 0.000000
0.275000 0.175000 0.000000
0.300000 0.175000 0.000000
0.325000 0.175000 0.000000
0.000000 0.200000 0.000000
0.025000 0.200000 0.000000
0.050000 0.200000 0.000000
0.075000 0.200000 0.000000
0.100000 0.200000 0.000000
0.125000 0.200000 0.000000
0.150000 0.200000 0.000000
0.175000 0.200000 0.000000
0.200000 0.200000 0.000000
0.225000 0.200000 0.000000
0.250000 0.200000 0.000000
0.275000 0.200000 0.000000
0.300000 0.200000 0.000000
0.325000 0.200000 0.000000
0.000000 0.225000 0.000000
0.025000 0.225000 0.000000
0.050000 0.225000 0.000000
0.075000 0.225000 0.000000
0.100000 0.225000 0.000000
0.125000 0.225000 0.000000
0.150000 0.225000 0.000000
0.175000 0.225000 0.000000
0.200000 0.225000 0.000000
0.225000 0.225000 0.000000
0.250000 0.225000 0.000000
0.275000 0.225000 0.000000
0.300000 0.225000 0.000000
0.325000 0.225000 0.000000
0.000000 0.250000 0.000000
0.025000 0.250000 0.000000
0.050000 0.250000 0.000000
0.075000 0.250000 0.000000
0.100000 0.250000 0.000000
0.125000 0.250000 0.000000
0.150000 0.250000 0.000000
0.175000 0.250000 0.000000
0.200000 0.250000 0.000000
0.225000 0.250000 0.000000
0.250000 0.250000 0.000000
0.275000 0.250000 0.000000
0.300000 0.250000 0.000000
0.325000 0.250000 0.000000
0.000000 0.275000 0.000000
0.025000 0.275000 0.000000
0.050000 0.275000 0.000000
0.075000 0.275000 0.000000
0.100000 0.275000 0.000000
0.125000 0.275000 0.000000
0.150000 0.275000 0.000000
0.175000 0.275000 0.000000
0.200000 0.275000 0.000000
0.225000 0.275000 0.000000
0.250000 0.275000 0.000000
0.275000 0.275000 0.000000
0.300000 0.275000 0.000000
0.325000 0.275000 0.000000
0.000000 0.300000 0.000000
0.025000 0.300000 0.000000
0.050000 0.300000 0.000000
0.075000 0.300000 0.000000
0.100000 0.300000 0.000000
0.125000 0.300000 0.000000
0.150000 0.300000 0.000000
0.175000 0.300000 0.000000
0.200000 0.300000 0.000000
0.225000 0.300000 0.000000
0.250000 0.300000 0.000000
0.275000 0.300000 0.000000
0.300000 0.300000 0.000000
0.325000 0.300000 0.000000
0.000000 0.325000 0.000000
0.025000 0.325000 0.000000
0.050000 0.325000 0.000000
0.075000 0.325000 0.000000
0.100000 0.325000 0.000000
0.125000 0.325000 0.000000
0.150000 0.325000 0.000000
0.175000 0.325000 0.000000
0.200000 0.325000 0.000000
0.225000 0.325000 0.000000
0.250000 0.325000 0.000000
0.275000 0.325000 0.000000
0.300000 0.325000 0.000000
0.325000 0.325000 0.000000
0.000000 0.350000 0.000000
0.025000 0.350000 0.000000
0.050000 0.350000 0.000000
0.075000 0.350000 0.000000
0.100000 0.350000 0.000000
0.125000 0.350000 0.000000
0.150000 0.350000 0.000000
0.175000 0.350000 0.000000
0.200000 0.350000 0.000000
0.225000 0.350000 0.000000
0.250000 0.350000 0.000000
0.275000 0.350000 0.000000
0.300000 0.350000 0.000000
0.325000 0.350000 0.000000
0.000000 0.375000 0.000000
0.025000 0.375000 0.000000
0.050000 0.375000 0.000000
0.075000 0.375000 0.000000
0.100000 0.375000 0.000000
0.125000 0.375000 0.000000
0.150000 0.375000 0.000000
0.175000 0.375000 0.000000
0.200000 0.375000 0.000000
0.225000 0.375000 0.000000
0.250000 0.375000 0.000000
0.275000 0.375000 0.000000
0.300000 0.375000 0.000000
0.325000 0.375000 0.000000
0.000000 0.400000 0.000000
0.025000 0.400000 0.000000
0.050000 0.400000 0.000000
0.075000 0.400000 0.000000
0.100000 0.400000 0.000000
0.125000 0.400000 0.000000
0.150000 0.400000 0.000000
0.175000 0.400000 0.000000
0.200000 0.400000 0.000000
0.225000 0.400000 0.000000
0.250000 0.400000 0.000000
0.275000 0.400000 0.000000
0.300000 0.400000 0.000000
0.325000 0.400000 0.000000
0.000000 0.425000 0.000000
0.025000 0.425000 0.000000
0.050000 0.425000 0.000000
0.075000 0.425000 0.000000
0.100000 0.425000 0.000000
0.125000 0.425000 0.000000
0.150000 0.425000 0.000000
0.175000 0.425000 0.000000
0.200000 0.425000 0.000000
0.225000 0.425000 0.000000
0.250000 0.425000 0.000000
0.275000 0.425000 0.000000
0.300000 0.425000 0.000000
0.325000 0.425000 0.000000
0.000000 0.450000 0.000000
0.025000 0.450000 0.000000
0.050000 0.450000 0.000000
0.075000 0.450000 0.000000
0.100000 0.450000 0.000000
0.125000 0.450000 0.000000
0.150000 0.450000 0.000000
0.175000 0.450000 0.000000
0.200000 0.450000 0.000000
0.225000 0.450000 0.000000
0.250000 0.450000 0.000000
0.275000 0.450000 0.000000
0.300000 0.450000 0.000000
0.325000 0.450000 0.000000
0.000000 0.475000 0.000000
0.025000 0.475000 0.000000
0.050000 0.475000 0.000000
0.075000 0.475000 0.000000
0.100000 0.475000 0.000000
0.125000 0.475000 0.000000
0.150000 0.475000 0.000000
0.175000 0.475000 0.000000
0.200000 0.475000 0.000000
0.225000 0.475000 0.000000
0.250000 0.475000 0.000000
0.275000 0.475000 0.000000
0.300000 0.475000 0.000000
0.325000 0.475000 0.000000
0.000000 0.500000 0.000000
0.025000 0.500000 0.000000
0.050000 0.500000 0.000000
0.075000 0.500000 0.000000
0.100000 0.500000 0.000000
0.125000 0.500000 0.000000
0.150000 0.500000 0.000000
0.175000 0.500000 0.000000
0.200000 0.500000 0.000000
0.225000 0.500000 0.000000
0.250000 0.500000 0.000000
0.275000 0.500000 0.000000
0.300000 0.500000 0.000000
0.325000 0.500000 0.000000
0.000000 0.000000 0.025000
0.025000 0.000000 0.025000
0.050000 0.000000 0.025000
0.075000 0.000000 0.025000
0.100000 0.000000 0.025000
0.125000 0.000000 0.025000
0.150000 0.000000 0.025000
0.175000 0.000000 0.025000
0.200000 0.000000 0.025000
0.225000 0.000000 0.025000
0.250000 0.000000 0.025000
0.275000 0.000000 0.025000
0.300000 0.000000 0.025000
0.325000 0.000000 0.025000
0.000000 0.025000 0.025000
0.025000 0.025000 0.025000
0.050000 0.025000 0.025000
0.075000 0.025000 0.025000
0.100000 0.025000 0.025000
0.125000 0.025000 0.025000
0.150000 0.025000 0.025000
0.175000 0.025000 0.025000
0.200000 0.025000 0.025000
0.225000 0.025000 0.025000
0.250000 0.025000 0.025000
0.275000 0.025000 0.025000
0.300000 0.025000 0.025000
0.325000 0.025000 0.025000
0.000000 0.050000 0.025000
0.025000 0.050000 0.025000
0.050000 0.050000 0.025000
0.075000 0.050000 0.025000
0.100000 0.050000 0.025000
0.125000 0.050000 0.025000
0.150000 0.050000 0.025000
0.175000 0.050000 0.025000
0.200000 0.050000 0.025000
0.225000 0.050000 0.025000
0.250000 0.050000 0.025000
0.275000 0.050000 0.025000
0.300000 0.050000 0.025000
0.325000 0.050000 0.025000
0.000000 0.075000 0.025000
0.025000 0.075000 0.025000
0.050000 0.075000 0.025000
0.075000 0.075000 0.025000
0.100000 0.075000 0.025000
0.125000 0.075000 0.025000
0.150000 0.075000 0.025000
0.175000 0.075000 0.025000
0.200000 0.075000 0.025000
0.225000 0.075000 0.025000
0.250000 0.075000 0.025000
0.275000 0.075000 0.025000
0.300000 0.075000 0.025000
0.325000 0.075000 0.025000
0.000000 0.100000 0.025000
0.025000 0.100000 0.025000
0.050000 0.100000 0.025000
0.075000 0.100000 0.025000
0.100000 0.100000 0.025000
0.125000 0.100000 0.025000
0.150000 0.100000 0.025000
0.175000 0.100000 0.025000
0.200000 0.100000 0.025000
0.225000 0.100000 0.025000
0.250000 0.100000 0.025000
0.275000 0.100000 0.025000
0.300000 0.100000 0.025000
0.325000 0.100000 0.025000
0.000000 0.125000 0.025000
[...]
CELL_DATA 10140
SCALARS density float 1
LOOKUP_TABLE default
0.999337
0.999337
0.999388
0.999476
0.999584
0.999688
0.999773
0.999825
0.999853
0.999861
0.999856
0.999846
0.999837
0.99926
0.999273
0.999327
0.999419
0.999537
0.999658
0.999766
0.999839
0.999877
0.999889
0.999883
0.999871
0.999861
0.999196
0.999212
0.999269
0.999365
0.999492
0.99963
0.999756
0.999843
0.999891
0.999907
0.999901
0.999888
0.999877
0.999144
0.999159
0.999217
0.999319
0.999457
0.999609
0.99975
0.999848
0.999902
0.999921
0.999915
0.999902
0.999889
0.999106
0.999119
0.99918
0.999288
0.999435
0.999599
0.999751
0.999856
0.999915
0.999934
0.999929
0.999914
0.999901
0.999085
0.999097
0.999161
0.999275
0.99943
0.999602
0.999761
0.999871
0.99993
0.999949
0.999942
0.999927
0.999914
0.999082
0.999092
0.999158
0.999277
0.999438
0.999615
0.999774
0.999884
0.999943
0.999962
0.999954
0.999939
0.999925
0.99909
0.999099
0.999167
0.999289
0.999454
0.999632
0.99979
0.999897
0.999953
0.999973
0.999965
0.999949
0.999935
0.9991
0.999111
0.999181
0.999305
0.99947
0.999648
0.999805
0.99991
0.999965
0.999982
0.999975
0.999958
0.999942
0.999109
0.999123
0.999194
0.999319
0.999485
0.999664
0.999824
0.999931
0.999983
0.999995
0.999983
0.999964
0.999948
0.999119
0.999137
0.999208
0.999333
0.999499
0.999679
0.999838
0.999944
0.999996
1
0.99999
0.99997
0.999952
0.999131
0.99915
0.999222
0.999347
0.999512
0.999691
0.999849
0.999954
1
1.00001
0.999996
0.999975
0.999956
0.999144
0.999162
0.999235
0.99936
0.999524
0.999702
0.999859
0.999962
1.00001
1.00002
1
0.99998
0.99996
0.99915
0.999172
0.999248
0.999374
0.999538
0.999714
0.99987
0.999972
1.00002
1.00002
1.00001
0.999985
0.999964
0.999137
0.999184
0.999269
0.999397
0.999559
0.999733
0.999888
0.999988
1.00003
1.00003
1.00001
0.999989
0.999968
0.999139
0.9992
0.99929
0.999418
0.999578
0.999749
0.999901
0.999999
1.00004
1.00003
1.00002
0.999992
0.999971
0.999161
0.999223
0.999308
0.999433
0.99959
0.999758
0.999908
1
1.00004
1.00004
1.00002
0.999995
0.999973
0.999208
0.999249
0.999319
0.999435
0.999589
0.99976
0.999913
1.00001
1.00005
1.00004
1.00002
0.999997
0.999976
0.999303
0.999272
0.999322
0.999429
0.999579
0.999748
0.999899
0.999998
1.00004
1.00004
1.00002
0.999999
0.99998
0.999317
0.999285
0.999336
0.999446
0.999594
0.999749
0.999883
0.99997
1.00002
1.00003
1.00002
0.999997
0.999979
0.999262
0.999275
0.999329
0.999421
0.999539
0.99966
0.999768
0.99984
0.999879
0.99989
0.999884
0.999873
0.999862
0.999183
0.99922
0.99927
0.999353
0.999467
0.999598
0.999729
0.999824
0.999881
0.999898
0.999894
0.999882
0.999871
0.999109
0.999158
0.999209
0.999289
0.999405
0.999548
0.9997
0.999815
0.999885
0.999907
0.999905
0.999892
0.99988
0.999046
0.999099
0.99915
0.999232
0.999355
0.999511
0.999681
0.999811
0.999892
0.999917
0.999915
0.999901
0.999889
0.999
0.999051
0.999103
0.999189
0.999321
0.999491
0.999675
0.999815
0.999902
0.999928
0.999926
0.999912
0.999899
0.998971
0.99902
0.999072
0.999164
0.999306
0.999486
0.999679
0.999825
0.999914
0.999942
0.999939
0.999924
0.999911
0.998964
0.999008
0.999061
0.999158
0.999307
0.999493
0.99969
0.999838
0.999927
0.999955
0.999952
0.999937
0.999924
0.998968
0.999011
0.999065
0.999165
0.999318
0.999507
0.999705
0.999852
0.999941
0.999967
0.999964
0.999949
0.999935
0.998979
0.999021
0.999077
0.999179
0.999333
0.999523
0.99972
0.999867
0.999954
0.999979
0.999974
0.999958
0.999944
0.99899
0.999033
0.999091
0.999194
0.999349
0.999539
0.999736
0.999881
0.999967
0.99999
0.999984
0.999966
0.99995
0.999004
0.999048
0.999106
0.999209
0.999364
0.999553
0.999749
0.999894
0.999978
0.999999
0.999991
0.999972
0.999955
0.999019
0.999064
0.999122
0.999224
0.999377
0.999566
0.999761
0.999904
0.999987
1.00001
0.999997
0.999977
0.999959
0.999034
0.99908
0.999138
0.999239
0.999391
0.999577
0.99977
0.999913
0.999995
1.00001
1
0.999982
0.999963
0.999047
0.999093
0.999154
0.999256
0.999406
0.99959
0.999781
0.999922
1
1.00002
1.00001
0.999987
0.999967
0.999029
0.999101
0.999171
0.999276
0.999425
0.999606
0.999794
0.999932
1.00001
1.00003
1.00001
0.999991
0.99997
0.999031
0.999114
0.999189
0.999295
0.999443
0.999621
0.999807
0.999941
1.00002
1.00003
1.00002
0.999994
0.999973
0.999054
0.999136
0.999209
0.999312
0.999458
0.999634
0.999816
0.999948
1.00002
1.00003
1.00002
0.999996
0.999975
0.999105
0.999167
0.999227
0.999324
0.999467
0.999643
0.999822
0.999952
1.00002
1.00003
1.00002
0.999998
0.999977
0.999226
0.99921
0.999243
0.999332
0.999472
0.999645
0.999822
0.99995
1.00002
1.00003
1.00002
0.999999
0.999979
0.999241
0.999222
0.999256
0.999342
0.99948
0.999649
0.999821
0.999947
1.00002
1.00003
1.00002
0.999998
0.999979
0.9992
0.999216
0.999273
0.99937
0.999497
0.999634
0.99976
0.999847
0.999895
0.99991
0.999904
0.999891
0.999879
0.999112
0.999161
0.999211
0.999291
0.999408
0.99955
0.999702
0.999817
0.999887
0.999909
0.999906
0.999893
0.999881
0.99903
0.999095
0.999143
0.999216
0.99933
0.999483
0.999658
0.999796
0.999884
0.999912
0.999911
0.999897
0.999884
0.998959
0.999029
0.999076
0.999148
0.999267
0.999433
0.999629
0.999786
0.999886
0.999918
0.999917
0.999903
0.99989
0.998904
0.998973
0.99902
0.999094
0.999223
0.999404
0.999615
0.999785
0.999892
0.999927
0.999926
0.999912
0.999898
0.998867
0.998933
0.998981
0.999061
0.999199
0.999393
0.999615
0.999792
0.999903
0.999938
0.999938
0.999923
0.99991
0.998855
0.998916
0.998964
0.999049
0.999195
0.999396
0.999624
0.999804
0.999916
0.999951
0.999951
0.999937
0.999923
0.99886
0.998916
0.998965
0.999053
0.999204
0.999409
0.999638
0.999818
0.999929
0.999964
0.999964
0.999949
0.999936
0.998872
0.998927
0.998976
0.999067
0.99922
0.999425
0.999654
0.999832
0.999942
0.999976
0.999974
0.999959
0.999945
0.99888
0.998939
0.998991
0.999083
0.999236
0.999441
0.999669
0.999845
0.999954
0.999986
0.999983
0.999967
0.999951
0.998894
0.998955
0.999008
0.9991
0.999252
0.999456
0.999682
0.999857
0.999964
0.999995
0.999991
0.999973
0.999956
0.998911
0.998973
0.999026
0.999117
0.999267
0.999469
0.999693
0.999868
0.999973
1
0.999997
0.999978
0.99996
0.998931
0.998992
0.999044
0.999134
0.999282
0.999481
0.999704
0.999876
0.999981
1.00001
1
0.999983
0.999965
0.998946
0.999008
0.999063
0.999153
0.999299
0.999494
0.999714
0.999884
0.999988
1.00002
1.00001
0.999987
0.999968
0.998926
0.999015
0.99908
0.999173
0.999318
0.99951
0.999726
0.999893
0.999994
1.00002
1.00001
0.999991
0.999972
0.998927
0.999028
0.999099
0.999193
0.999337
0.999526
0.999738
0.999901
1
1.00002
1.00002
0.999994
0.999974
0.998953
0.999051
0.999119
0.999212
0.999355
0.999542
0.999749
0.999909
1
1.00003
1.00002
0.999996
0.999976
0.999009
0.999087
0.999142
0.999229
0.999369
0.999555
0.999759
0.999915
1.00001
1.00003
1.00002
0.999998
0.999978
0.999142
0.999138
0.999166
0.999244
0.99938
0.999563
0.999764
0.999918
1.00001
1.00003
1.00002
0.999998
0.999979
0.999158
0.999153
0.999177
0.999254
0.999388
0.999569
0.999768
0.999919
1.00001
1.00003
1.00002
0.999998
0.999979
0.999152
0.999167
0.999226
0.999328
0.999465
0.999617
0.999757
0.999855
0.999908
0.999927
0.999921
0.999907
0.999894
0.999052
0.999105
0.999155
0.999237
0.999361
0.999517
0.999686
0.999816
0.999896
0.999921
0.999919
0.999905
0.999892
0.998962
0.999032
0.999079
0.999151
0.99927
0.999436
0.999632
0.999788
0.999888
0.99992
0.999919
0.999905
0.999891
0.998884
0.998959
0.999004
0.999072
0.999196
0.999377
0.999595
0.999772
0.999886
0.999922
0.999923
0.999908
0.999894
0.998821
0.998895
0.998939
0.99901
0.999143
0.999341
0.999577
0.999768
0.99989
0.999929
0.99993
0.999915
0.999901
0.998777
0.99885
0.998894
0.998971
0.999115
0.999325
0.999573
0.999772
0.999898
0.999939
0.99994
0.999926
0.999913
0.998764
0.998828
0.998873
0.998955
0.999107
0.999326
0.99958
0.999783
0.99991
0.999951
0.999953
0.999939
0.999927
0.99877
0.998828
0.998872
0.998958
0.999115
0.999338
0.999593
0.999796
0.999922
0.999963
0.999965
0.999951
0.999939
0.998784
0.998838
0.998883
0.998972
0.999131
0.999354
0.999608
0.999809
0.999934
0.999974
0.999975
0.999961
0.999949
0.998789
0.998852
0.9989
0.99899
0.999149
0.999371
0.999623
0.999822
0.999945
0.999983
0.999984
0.999968
0.999955
0.998804
0.99887
0.998919
0.999008
0.999166
0.999386
0.999636
0.999833
0.999954
0.999992
0.99999
0.999974
0.999959
0.998824
0.99889
0.998939
0.999027
0.999182
0.999399
0.999647
0.999843
0.999963
0.999999
0.999996
0.999979
0.999963
0.998846
0.998911
0.99896
0.999046
0.999198
0.999412
0.999657
0.999851
0.99997
1.00001
1
0.999983
0.999967
0.998862
0.99893
0.998981
0.999067
0.999216
0.999426
0.999668
0.999859
0.999976
1.00001
1.00001
0.999988
0.99997
0.998843
0.998938
0.999
0.999089
0.999237
0.999442
0.999679
0.999866
0.999982
1.00002
1.00001
0.999991
0.999973
0.998845
0.998952
0.99902
0.999111
0.999257
0.99946
0.999692
0.999875
0.999987
1.00002
1.00001
0.999994
0.999976
0.998874
0.998977
0.999042
0.999132
0.999277
0.999477
0.999705
0.999883
0.999991
1.00002
1.00002
0.999996
0.999978
0.998933
0.999015
0.999068
0.999152
0.999295
0.999493
0.999716
0.99989
0.999995
1.00002
1.00002
0.999997
0.999979
0.999066
0.999072
0.999096
0.99917
0.99931
0.999505
0.999724
0.999895
0.999996
1.00002
1.00002
0.999997
0.99998
0.9991
0.999085
0.99911
0.999182
0.99932
0.999513
0.99973
0.999897
0.999997
1.00002
1.00002
0.999997
0.99998
0.999118
0.999131
0.999192
0.999301
0.999448
0.999612
0.999762
0.999867
0.999924
0.999943
0.999937
0.999922
0.999908
0.99901
0.999061
0.999112
0.999198
0.999331
0.999501
0.999683
0.999823
0.999909
0.999935
0.999932
0.999918
0.999904
0.998911
0.99898
0.999027
0.999101
0.99923
0.999411
0.999622
0.999791
0.999898
0.999931
0.999931
0.999916
0.999902
0.998825
0.998899
0.998943
0.999014
0.999147
0.999345
0.999581
0.999771
0.999893
0.999932
0.999932
0.999917
0.999903
0.998757
0.998829
0.998872
0.998946
0.999089
0.999304
0.999558
0.999764
0.999894
0.999936
0.999938
0.999923
0.99991
0.99871
0.998779
0.998822
0.998902
0.999056
0.999285
0.999552
0.999766
0.9999
0.999944
0.999947
0.999933
0.999921
0.998696
0.998756
0.998798
0.998883
0.999047
0.999284
0.999557
0.999774
0.999909
0.999954
0.999958
0.999946
0.999935
0.998704
0.998755
0.998797
0.998886
0.999054
0.999295
0.999568
0.999785
0.999919
0.999965
0.999969
0.999957
0.999947
0.99872
0.998768
0.99881
0.998901
0.99907
0.99931
0.999582
0.999797
0.99993
0.999974
0.999978
0.999966
0.999956
0.998728
0.998784
0.998828
0.99892
0.999089
0.999327
0.999596
0.999808
0.999939
0.999982
0.999985
0.999973
0.999961
0.998745
0.998804
0.998849
0.99894
0.999107
0.999342
0.999608
0.999818
0.999947
0.999989
0.999991
0.999977
0.999965
0.998766
0.998826
0.998871
0.99896
0.999124
0.999356
0.999619
0.999827
0.999954
0.999995
0.999996
0.999981
0.999968
0.99879
0.998849
0.998894
0.998981
0.999141
0.999369
0.999629
0.999835
0.999961
1
1
0.999985
0.999971
0.998808
0.99887
0.998918
0.999004
0.999161
0.999384
0.999639
0.999842
0.999966
1.00001
1
0.999989
0.999974
0.998793
0.998881
0.998938
0.999027
0.999182
0.9994
0.99965
0.999849
0.999971
1.00001
1.00001
0.999992
0.999977
0.998798
0.998897
0.99896
0.999051
0.999204
0.999418
0.999663
0.999856
0.999976
1.00001
1.00001
0.999994
0.999979
0.998828
0.998923
0.998984
0.999074
0.999226
0.999437
0.999677
0.999865
0.99998
1.00001
1.00001
0.999996
0.999981
0.998887
0.998963
0.999012
0.999097
0.999246
0.999455
0.999689
0.999872
0.999983
1.00002
1.00001
0.999997
0.999982
0.999018
0.999016
0.999043
0.999117
0.999263
0.999469
0.999699
0.999878
0.999985
1.00002
1.00001
0.999997
0.999982
0.99903
0.999043
0.999059
0.999131
0.999275
0.999478
0.999705
0.999881
0.999986
1.00002
1.00001
0.999997
0.999982
0.9991
0.999113
0.999177
0.999292
0.999447
0.999619
0.999776
0.999884
0.999942
0.99996
0.999952
0.999936
0.999922
0.998986
0.999034
0.999086
0.999178
0.99932
0.9995
0.999692
0.999837
0.999924
0.999951
0.999948
0.999932
0.999918
0.998879
0.998945
0.998993
0.999073
0.999212
0.999405
0.999626
0.999802
0.999911
0.999946
0.999945
0.99993
0.999916
0.998786
0.998858
0.998903
0.99898
0.999124
0.999334
0.999582
0.99978
0.999905
0.999945
0.999946
0.999931
0.999917
0.998715
0.998784
0.998827
0.998907
0.999062
0.99929
0.999557
0.99977
0.999903
0.999947
0.99995
0.999936
0.999924
0.99867
0.998732
0.998774
0.99886
0.999027
0.999269
0.999548
0.999769
0.999907
0.999953
0.999957
0.999945
0.999934
0.998659
0.998709
0.99875
0.998841
0.999016
0.999266
0.99955
0.999774
0.999913
0.999961
0.999967
0.999956
0.999947
0.998666
0.99871
0.99875
0.998843
0.999022
0.999275
0.999559
0.999782
0.999921
0.999969
0.999976
0.999966
0.999958
0.998685
0.998726
0.998764
0.998859
0.999038
0.99929
0.999571
0.999792
0.999928
0.999976
0.999983
0.999974
0.999966
0.998701
0.998744
0.998784
0.99888
0.999058
0.999307
0.999584
0.999801
0.999935
0.999982
0.999988
0.999979
0.999971
0.998724
0.998766
0.998807
0.998901
0.999076
0.999322
0.999595
0.99981
0.999942
0.999987
0.999992
0.999983
0.999974
0.998748
0.998791
0.998831
0.998922
0.999094
0.999335
0.999605
0.999817
0.999948
0.999992
0.999996
0.999985
0.999976
0.998773
0.998817
0.998856
0.998945
0.999112
0.999348
0.999615
0.999824
0.999953
0.999996
1
0.999988
0.999978
0.998795
0.99884
0.998881
0.998969
0.999132
0.999363
0.999624
0.99983
0.999957
1
1
0.999991
0.99998
0.998786
0.998853
0.998904
0.998993
0.999154
0.99938
0.999635
0.999837
0.999961
1
1.00001
0.999993
0.999982
0.998795
0.998872
0.998927
0.999018
0.999177
0.999398
0.999647
0.999844
0.999965
1
1.00001
0.999995
0.999984
0.998825
0.9989
0.998953
0.999044
0.9992
0.999418
0.999661
0.999852
0.999969
1.00001
1.00001
0.999996
0.999985
0.998881
0.99894
0.998984
0.999068
0.999222
0.999436
0.999674
0.999859
0.999972
1.00001
1.00001
0.999997
0.999986
0.999005
0.999003
0.999015
0.99909
0.99924
0.999452
0.999685
0.999866
0.999974
1.00001
1.00001
0.999997
0.999986
0.999073
0.999023
0.999032
0.999104
0.999253
0.999462
0.999692
0.999869
0.999975
1.00001
1.00001
0.999997
0.999986
0.9991
0.999112
0.999179
0.999299
0.999459
0.999635
0.999792
0.9999
0.999957
0.999974
0.999966
0.99995
0.999935
0.998982
0.999026
0.99908
0.999177
0.999326
0.999511
0.999706
0.999853
0.99994
0.999967
0.999963
0.999947
0.999933
0.998872
0.998933
0.998981
0.999066
0.999213
0.999413
0.99964
0.999817
0.999927
0.999962
0.999961
0.999945
0.999931
0.998778
0.998843
0.998887
0.99897
0.999122
0.999341
0.999593
0.999794
0.99992
0.99996
0.999961
0.999946
0.999933
0.998707
0.998767
0.998809
0.998895
0.999058
0.999295
0.999566
0.999782
0.999916
0.999961
0.999964
0.999951
0.99994
0.998664
0.998715
0.998756
0.998847
0.999022
0.999272
0.999555
0.999779
0.999917
0.999964
0.99997
0.999959
0.99995
0.998658
0.998694
0.998732
0.998827
0.999009
0.999267
0.999554
0.99978
0.99992
0.999969
0.999977
0.999969
0.999961
0.998674
0.998699
0.998733
0.99883
0.999015
0.999274
0.999561
0.999785
0.999924
0.999974
0.999983
0.999977
0.999971
0.9987
0.998718
0.998749
0.998846
0.999031
0.999288
0.999571
0.999792
0.999929
0.999979
0.999989
0.999983
0.999978
0.99872
0.998739
0.998772
0.998868
0.999051
0.999304
0.999583
0.9998
0.999934
0.999983
0.999992
0.999987
0.999982
0.998745
0.998764
0.998796
0.998891
0.99907
0.999319
0.999593
0.999807
0.999938
0.999986
0.999995
0.999989
0.999984
0.998771
0.998791
0.998822
0.998914
0.999089
0.999333
0.999602
0.999813
0.999942
0.999989
0.999997
0.999991
0.999985
0.998798
0.998818
0.998848
0.998937
0.999107
0.999345
0.99961
0.999818
0.999946
0.999992
0.999999
0.999992
0.999986
0.998822
0.998843
0.998875
0.998962
0.999127
0.999359
0.999618
0.999822
0.999949
0.999994
1
0.999994
0.999988
0.998815
0.998858
0.998899
0.998987
0.999149
0.999376
0.999629
0.999828
0.999952
0.999996
1
0.999995
0.999989
0.998825
0.998878
0.998923
0.999013
0.999173
0.999394
0.999641
0.999835
0.999955
0.999997
1
0.999997
0.99999
0.998857
0.998907
0.998951
0.999039
0.999197
0.999414
0.999654
0.999842
0.999958
0.999999
1
0.999997
0.999991
0.998909
0.998946
0.998979
0.999064
0.99922
0.999433
0.999668
0.99985
0.999961
1
1.00001
0.999998
0.999991
0.999024
0.998993
0.999011
0.999087
0.999239
0.99945
0.999679
0.999856
0.999963
1
1
0.999998
0.999991
0.999029
0.999021
0.999029
0.999103
0.999253
0.999461
0.999687
0.99986
0.999965
1
1
0.999998
0.999991
0.999112
0.999123
0.999192
0.999314
0.999477
0.999654
0.999809
0.999914
0.999968
0.999987
0.999978
0.999961
0.999945
0.99899
0.999034
0.999089
0.999189
0.999341
0.999529
0.999724
0.999869
0.999955
0.99998
0.999976
0.99996
0.999945
0.998882
0.998938
0.998987
0.999076
0.999226
0.99943
0.999657
0.999834
0.999943
0.999976
0.999975
0.999959
0.999945
0.998789
0.998848
0.998893
0.998979
0.999136
0.999357
0.99961
0.99981
0.999934
0.999974
0.999975
0.99996
0.999947
0.99872
0.998772
0.998815
0.998904
0.999071
0.99931
0.999582
0.999796
0.999929
0.999974
0.999977
0.999964
0.999953
0.998677
0.998723
0.998763
0.998857
0.999035
0.999286
0.999568
0.99979
0.999927
0.999974
0.999981
0.999971
0.999962
0.99868
0.998705
0.99874
0.998836
0.999021
0.999279
0.999565
0.999789
0.999927
0.999977
0.999986
0.999979
0.999973
0.998706
0.998714
0.998743
0.99884
0.999027
0.999286
0.99957
0.999791
0.999929
0.999979
0.99999
0.999986
0.999982
0.998741
0.998736
0.998762
0.998858
0.999044
0.999299
0.999579
0.999796
0.999931
0.999982
0.999994
0.999991
0.999988
0.998759
0.998762
0.998787
0.998882
0.999065
0.999316
0.999589
0.999802
0.999934
0.999984
0.999996
0.999993
0.999991
0.998787
0.998789
0.998815
0.998907
0.999086
0.999331
0.999599
0.999808
0.999937
0.999986
0.999997
0.999994
0.999992
0.998816
0.998818
0.998842
0.998932
0.999105
0.999345
0.999607
0.999813
0.99994
0.999987
0.999998
0.999995
0.999993
0.998846
0.998847
0.99887
0.998956
0.999124
0.999358
0.999615
0.999817
0.999942
0.999989
0.999999
0.999996
0.999993
0.998871
0.998873
0.998898
0.998982
0.999144
0.999372
0.999623
0.999821
0.999944
0.99999
1
0.999997
0.999994
0.998865
0.998891
0.998923
0.999008
0.999167
0.999388
0.999633
0.999825
0.999946
0.999991
1
0.999998
0.999994
0.998877
0.998912
0.998949
0.999034
0.999191
0.999406
0.999644
0.999831
0.999949
0.999992
1
0.999998
0.999995
0.99891
0.998942
0.998977
0.999061
0.999215
0.999426
0.999657
0.999839
0.999951
0.999993
1
0.999998
0.999995
0.998962
0.998979
0.999007
0.999087
0.999238
0.999445
0.999671
0.999846
0.999954
0.999994
1
0.999999
0.999995
0.999065
0.999032
0.999037
0.999111
0.999258
0.999462
0.999682
0.999853
0.999956
0.999994
1
0.999999
0.999996
0.999111
0.999049
0.999056
0.999127
0.999273
0.999474
0.999691
0.999857
0.999958
0.999995
1
0.999999
0.999996
0.999125
0.999139
0.999209
0.999333
0.999497
0.999672
0.999826
0.999927
0.99998
0.999996
0.999987
0.999969
0.999952
0.999006
0.999049
0.999106
0.999207
0.99936
0.999547
0.999741
0.999884
0.999969
0.999992
0.999987
0.99997
0.999954
0.998898
0.998954
0.999004
0.999095
0.999246
0.999449
0.999674
0.999849
0.999957
0.999989
0.999986
0.99997
0.999955
0.998809
0.998864
0.998911
0.998999
0.999156
0.999377
0.999628
0.999825
0.999947
0.999986
0.999986
0.999971
0.999958
0.998741
0.998791
0.998835
0.998925
0.999093
0.99933
0.999598
0.99981
0.999941
0.999984
0.999987
0.999974
0.999963
0.998702
0.998745
0.998784
0.998879
0.999056
0.999305
0.999584
0.999802
0.999936
0.999983
0.999989
0.99998
0.999972
0.998711
0.998731
0.998763
0.99886
0.999043
0.999298
0.999579
0.999798
0.999934
0.999983
0.999992
0.999986
0.999981
0.998747
0.998743
0.998769
0.998865
0.99905
0.999304
0.999582
0.999799
0.999933
0.999983
0.999995
0.999992
0.999989
0.998785
0.998769
0.998791
0.998885
0.999068
0.999318
0.99959
0.999802
0.999934
0.999984
0.999997
0.999996
0.999994
0.998807
0.998799
0.99882
0.998913
0.999091
0.999335
0.999601
0.999807
0.999936
0.999985
0.999998
0.999997
0.999997
0.998836
0.998831
0.998851
0.998941
0.999114
0.999352
0.999611
0.999812
0.999938
0.999986
0.999999
0.999998
0.999997
0.998869
0.998862
0.998882
0.998967
0.999135
0.999367
0.999619
0.999817
0.99994
0.999987
0.999999
0.999998
0.999997
0.998902
0.998893
0.998911
0.998993
0.999156
0.99938
0.999627
0.99982
0.999941
0.999987
1
0.999999
0.999998
0.998928
0.998921
0.99894
0.99902
0.999176
0.999394
0.999635
0.999824
0.999942
0.999988
1
0.999999
0.999998
0.998927
0.998941
0.998967
0.999047
0.999199
0.99941
0.999644
0.999828
0.999944
0.999988
1
0.999999
0.999998
0.998941
0.998965
0.998994
0.999074
0.999223
0.999429