# vtk DataFile Version 2.0
I need something to put here
ASCII

DATASET STRUCTURED_GRID
DIMENSIONS 14 20 40
POINTS 11200 float
0.000000 0.500000 0.000000
0.025000 0.500000 0.000000
0.050000 0.500000 0.000000
0.075000 0.500000 0.000000
0.100000 0.500000 0.000000
0.125000 0.500000 0.000000
0.150000 0.500000 0.000000
0.175000 0.500000 0.000000
0.200000 0.500000 0.000000
0.225000 0.500000 0.000000
0.250000 0.500000 0.000000
0.275000 0.500000 0.000000
0.300000 0.500000 0.000000
0.325000 0.500000 0.000000
0.000000 0.525000 0.000000
0.025000 0.525000 0.000000
0.050000 0.525000 0.000000
0.075000 0.525000 0.000000
0.100000 0.525000 0.000000
0.125000 0.525000 0.000000
0.150000 0.525000 0.000000
0.175000 0.525000 0.000000
0.200000 0.525000 0.000000
0.225000 0.525000 0.000000
0.250000 0.525000 0.000000
0.275000 0.525000 0.000000
0.300000 0.525000 0.000000
0.325000 0.525000 0.000000
0.000000 0.550000 0.000000
0.025000 0.550000 0.000000
0.050000 0.550000 0.000000
0.075000 0.550000 0.000000
0.100000 0.550000 0.000000
0.125000 0.550000 0.000000
0.150000 0.550000 0.000000
0.175000 0.550000 0.000000
0.200000 0.550000 0.000000
0.225000 0.550000 0.000000
0.250000 0.550000 0.000000
0.275000 0.550000 0.000000
0.300000 0.550000 0.000000
0.325000 0.550000 0.000000
0.000000 0.575000 0.000000
0.025000 0.575000 0.000000
0.050000 0.575000 0.000000
0.075000 0.575000 0.000000
0.100000 0.575000 0.000000
0.125000 0.575000 0.000000
0.150000 0.575000 0.000000
0.175000 0.575000 0.000000
0.200000 0.575000 0.000000
0.225000 0.575000 0.000000
0.250000 0.575000 0.000000
0.275000 0.575000 0.000000
0.300000 0.575000 0.000000
0.325000 0.575000 0.000000
0.000000 0.600000 0.000000
0.025000 0.600000 0.000000
0.050000 0.600000 0.000000
0.075000 0.600000 0.000000
0.100000 0.600000 0.000000
0.125000 0.600000 0.000000
0.150000 0.600000 0.000000
0.175000 0.600000 0.000000
0.200000 0.600000 0.000000
0.225000 0.600000 0.000000
0.250000 0.600000 0.000000
0.275000 0.600000 0.000000
0.300000 0.600000 0.000000
0.325000 0.600000 0.000000
0.000000 0.625000 0.000000
0.025000 0.625000 0.000000
0.050000 0.625000 0.000000
0.075000 0.625000 0.000000
0.100000 0.625000 0.000000
0.125000 0.625000 0.000000
0.150000 0.625000 0.000000
0.175000 0.625000 0.000000
0.200000 0.625000 0.000000
0.225000 0.625000 0.000000
0.250000 0.625000 0.000000
0.275000 0.625000 0.000000
0.300000 0.625000 0.000000
0.325000 0.625000 0.000000
0.000000 0.650000 0.000000
0.025000 0.650000 0.000000
0.050000 0.650000 0.000000
0.075000 0.650000 0.000000
0.100000 0.650000 0.000000
0.125000 0.650000 0.000000
0.150000 0.650000 0.000000
0.175000 0.650000 0.000000
0.200000 0.650000 0.000000
0.225000 0.650000 0.000000
0.250000 0.650000 0.000000
0.275000 0.650000 0.000000
0.300000 0.650000 0.000000
0.325000 0.650000 0.000000
0.000000 0.675000 0.000000
0.025000 0.675000 0.000000
0.050000 0.675000 0.000000
0.075000 0.675000 0.000000
0.100000 0.675000 0.000000
0.125000 0.675000 0.000000
0.150000 0.675000 0.000000
0.175000 0.675000 0.000000
0.200000 0.675000 0.000000
0.225000 0.675000 0.000000
0.250000 0.675000 0.000000
0.275000 0.675000 0.000000
0.300000 0.675000 0.000000
0.325000 0.675000 0.000000
0.000000 0.700000 0.000000
0.025000 0.700000 0.000000
0.050000 0.700000 0.000000
0.075000 0.700000 0.000000
0.100000 0.700000 0.000000
0.125000 0.700000 0.000000
0.150000 0.700000 0.000000
0.175000 0.700000 0.000000
0.200000 0.700000 0.000000
0.225000 0.700000 0.000000
0.250000 0.700000 0.000000
0.275000 0.700000 0.000000
0.300000 0.700000 0.000000
0.325000 0.700000 0.000000
0.000000 0.725000 0.000000
0.025000 0.725000 0.000000
0.050000 0.725000 0.000000
0.075000 0.725000 0.000000
0.100000 0.725000 0.000000
0.125000 0.725000 0.000000
0.150000 0.725000 0.000000
0.175000 0.725000 0.000000
0.200000 0.725000 0.000000
0.225000 0.725000 0.000000
0.250000 0.725000 0.000000
0.275000 0.725000 0.000000
0.300000 0.725000 0.000000
0.325000 0.725000 0.000000
0.000000 0.750000 0.000000
0.025000 0.750000 0.000000
0.050000 0.750000 0.000000
0.075000 0.750000 0.000000
0.100000 0.750000 0.000000
0.125000 0.750000 0.000000
0.150000 0.750000 0.000000
0.175000 0.750000 0.000000
0.200000 0.750000 0.000000
0.225000 0.750000 0.000000
0.250000 0.750000 0.000000
0.275000 0.750000 0.000000
0.300000 0.750000 0.000000
0.325000 0.750000 0.000000
0.000000 0.775000 0.000000
0.025000 0.775000 0.000000
0.050000 0.775000 0.000000
0.075000 0.775000 0.000000
0.100000 0.775000 0.000000
0.125000 0.775000 0.000000
0.150000 0.775000 0.000000
0.175000 0.775000 0.000000
0.200000 0.775000 0.000000
0.225000 0.775000 0.000000
0.250000 0.775000 0.000000
0.275000 0.775000 0.000000
0.300000 0.775000 0.000000
0.325000 0.775000 0.000000
0.000000 0.800000 0.000000
0.025000 0.800000 0.000000
0.050000 0.800000 0.000000
0.075000 0.800000 0.000000
0.100000 0.800000 0.000000
0.125000 0.800000 0.000000
0.150000 0.800000 0.000000
0.175000 0.800000 0.000000
0.200000 0.800000 0.000000
0.225000 0.800000 0.000000
0.250000 0.800000 0.000000
0.275000 0.800000 0.000000
0.300000 0.800000 0.000000
0.325000 0.800000 0.000000
0.000000 0.825000 0.000000
0.025000 0.825000 0.000000
0.050000 0.825000 0.000000
0.075000 0.825000 0.000000
0.100000 0.825000 0.000000
0.125000 0.825000 0.000000
0.150000 0.825000 0.000000
0.175000 0.825000 0.000000
0.200000 0.825000 0.000000
0.225000 0.825000 0.000000
0.250000 0.825000 0.000000
0.275000 0.825000 0.000000
0.300000 0.825000 0.000000
0.325000 0.825000 0.000000
0.000000 0.850000 0.000000
0.025000 0.850000 0.000000
0.050000 0.850000 0.000000
0.075000 0.850000 0.000000
0.100000 0.850000 0.000000
0.125000 0.850000 0.000000
0.150000 0.850000 0.000000
0.175000 0.850000 0.000000
0.200000 0.850000 0.000000
0.225000 0.850000 0.000000
0.250000 0.850000 0.000000
0.275000 0.850000 0.000000
0.300000 0.850000 0.000000
0.325000 0.850000 0.000000
0.000000 0.875000 0.000000
0.025000 0.875000 0.000000
0.050000 0.875000 0.000000
0.075000 0.875000 0.000000
0.100000 0.875000 0.000000
0.125000 0.875000 0.000000
0.150000 0.875000 0.000000
0.175000 0.875000 0.000000
0.200000 0.875000 0.000000
0.225000 0.875000 0.000000
0.250000 0.875000 0.000000
0.275000 0.875000 0.000000
0.300000 0.875000 0.000000
0.325000 0.875000 0.000000
0.000000 0.900000 0.000000
0.025000 0.900000 0.000000
0.050000 0.900000 0.000000
0.075000 0.900000 0.000000
0.100000 0.900000 0.000000
0.125000 0.900000 0.000000
0.150000 0.900000 0.000000
0.175000 0.900000 0.000000
0.200000 0.900000 0.000000
0.225000 0.900000 0.000000
0.250000 0.900000 0.000000
0.275000 0.900000 0.000000
0.300000 0.900000 0.000000
0.325000 0.900000 0.000000
0.000000 0.925000 0.000000
0.025000 0.925000 0.000000
0.050000 0.925000 0.000000
0.075000 0.925000 0.000000
0.100000 0.925000 0.000000
0.125000 0.925000 0.000000
0.150000 0.925000 0.000000
0.175000 0.925000 0.000000
0.200000 0.925000 0.000000
0.225000 0.925000 0.000000
0.250000 0.925000 0.000000
0.275000 0.925000 0.000000
0.300000 0.925000 0.000000
0.325000 0.925000 0.000000
0.000000 0.950000 0.000000
0.025000 0.950000 0.000000
0.050000 0.950000 0.000000
0.075000 0.950000 0.000000
0.100000 0.950000 0.000000
0.125000 0.950000 0.000000
0.150000 0.950000 0.000000
0.175000 0.950000 0.000000
0.200000 0.950000 0.000000
0.225000 0.950000 0.000000
0.250000 0.950000 0.000000
0.275000 0.950000 0.000000
0.300000 0.950000 0.000000
0.325000 0.950000 0.000000
0.000000 0.975000 0.000000
0.025000 0.975000 0.000000
0.050000 0.975000 0.000000
0.075000 0.975000 0.000000
0.100000 0.975000 0.000000
0.125000 0.975000 0.000000
0.150000 0.975000 0.000000
0.175000 0.975000 0.000000
0.200000 0.975000 0.000000
0.225000 0.975000 0.000000
0.250000 0.975000 0.000000
0.275000 0.975000 0.000000
0.300000 0.975000 0.000000
0.325000 0.975000 0.000000
0.000000 0.500000 0.025000
0.025000 0.500000 0.025000
0.050000 0.500000 0.025000
0.075000 0.500000 0.025000
0.100000 0.500000 0.025000
0.125000 0.500000 0.025000
0.150000 0.500000 0.025000
0.175000 0.500000 0.025000
0.200000 0.500000 0.025000
0.225000 0.500000 0.025000
0.250000 0.500000 0.025000
0.275000 0.500000 0.025000
0.300000 0.500000 0.025000
0.325000 0.500000 0.025000
0.000000 0.525000 0.025000
0.025000 0.525000 0.025000
0.050000 0.525000 0.025000
0.075000 0.525000 0.025000
0.100000 0.525000 0.025000
0.125000 0.525000 0.025000
0.150000 0.525000 0.025000
0.175000 0.525000 0.025000
0.200000 0.525000 0.025000
0.225000 0.525000 0.025000
0.250000 0.525000 0.025000
0.275000 0.525000 0.025000
0.300000 0.525000 0.025000
0.325000 0.525000 0.025000
0.000000 0.550000 0.025000
0.025000 0.550000 0.025000
0.050000 0.550000 0.025000
0.075000 0.550000 0.025000
0.100000 0.550000 0.025000
0.125000 0.550000 0.025000
0.150000 0.550000 0.025000
0.175000 0.550000 0.025000
0.200000 0.550000 0.025000
0.225000 0.550000 0.025000
0.250000 0.550000 0.025000
0.275000 0.550000 0.025000
0.300000 0.550000 0.025000
0.325000 0.550000 0.025000
0.000000 0.575000 0.025000
0.025000 0.575000 0.025000
0.050000 0.575000 0.025000
0.075000 0.575000 0.025000
0.100000 0.575000 0.025000
0.125000 0.575000 0.025000
0.150000 0.575000 0.025000
0.175000 0.575000 0.025000
0.200000 0.575000 0.025000
0.225000 0.575000 0.025000
0.250000 0.575000 0.025000
0.275000 0.575000 0.025000
0.300000 0.575000 0.025000
0.325000 0.575000 0.025000
0.000000 0.600000 0.025000
0.025000 0.600000 0.025000
0.050000 0.600000 0.025000
0.075000 0.600000 0.025000
0.100000 0.600000 0.025000
0.125000 0.600000 0.025000
0.150000 0.600000 0.025000
0.175000 0.600000 0.025000
0.200000 0.600000 0.025000
0.225000 0.600000 0.025000
0.250000 0.600000 0.025000
0.275000 0.600000 0.025000
0.300000 0.600000 0.025000
0.325000 0.600000 0.025000
0.000000 0.625000 0.025000
0.025000 0.625000 0.025000
0.050000 0.625000 0.025000
0.075000 0.625000 0.025000
0.100000 0.625000 0.025000
0.125000 0.625000 0.025000
0.150000 0.625000 0.025000
0.175000 0.625000 0.025000
0.200000 0.625000 0.025000
0.225000 0.625000 0.025000
0.250000 0.625000 0.025000
0.275000 0.625000 0.025000
0.300000 0.625000 0.025000
0.325000 0.625000 0.025000
0.000000 0.650000 0.025000
[...]
CELL_DATA 9633
SCALARS density float 1
LOOKUP_TABLE default
0.999696
0.999714
0.999716
0.999719
0.999725
0.999731
0.999736
0.999741
0.999745
0.999749
0.999754
0.99976
0.999766
0.999675
0.999693
0.999703
0.999711
0.999719
0.999726
0.999732
0.999737
0.999742
0.999747
0.999752
0.999758
0.999765
0.999677
0.999685
0.999695
0.999705
0.999715
0.999723
0.999729
0.999735
0.99974
0.999746
0.999751
0.999757
0.999764
0.99968
0.999683
0.999691
0.999702
0.999712
0.999721
0.999728
0.999734
0.999739
0.999745
0.999751
0.999757
0.999764
0.999681
0.999683
0.999689
0.9997
0.999711
0.99972
0.999727
0.999733
0.999738
0.999744
0.99975
0.999756
0.999763
0.999682
0.999684
0.999691
0.999701
0.999711
0.99972
0.999726
0.999731
0.999737
0.999743
0.999749
0.999754
0.999761
0.999683
0.999687
0.999694
0.999704
0.999712
0.99972
0.999726
0.999731
0.999736
0.999743
0.999748
0.999753
0.999759
0.999686
0.99969
0.999702
0.999709
0.999714
0.99972
0.999725
0.99973
0.999735
0.999742
0.999747
0.999752
0.999757
0.999669
0.999716
0.999719
0.999716
0.999717
0.99972
0.999724
0.999728
0.999733
0.99974
0.999745
0.999751
0.999756
0.999826
0.999773
0.99974
0.999726
0.99972
0.99972
0.999721
0.999723
0.999728
0.999737
0.999743
0.999748
0.999754
0.99982
0.999804
0.999757
0.999733
0.999723
0.99972
0.99972
0.999722
0.999726
0.999736
0.999741
0.999746
0.999753
0.999828
0.999807
0.999766
0.999737
0.999723
0.999719
0.999718
0.999721
0.999725
0.999734
0.999739
0.999745
0.999751
0.999822
0.999808
0.999766
0.999737
0.999722
0.999717
0.999716
0.999719
0.999723
0.999731
0.999736
0.999742
0.999749
0.99981
0.999805
0.999764
0.999735
0.999719
0.999714
0.999713
0.999715
0.999719
0.999727
0.999732
0.999738
0.999744
0.999803
0.9998
0.999762
0.999732
0.999717
0.999712
0.999711
0.999713
0.999717
0.999724
0.999727
0.99973
0.999735
0.999801
0.999799
0.999756
0.999729
0.999716
0.999711
0.999711
0.999713
0.999716
0.999722
0.999722
0.999717
0.999714
0.999812
0.99978
0.999747
0.999727
0.999717
0.999713
0.999713
0.999715
0.999718
0.999722
0.999719
0.999703
0.999668
0.999692
0.999739
0.999738
0.999729
0.999721
0.999717
0.999717
0.999719
0.999721
0.999725
0.999721
0.999698
0.999612
0.999732
0.999729
0.999737
0.999734
0.999728
0.999725
0.999725
0.999726
0.999728
0.999731
0.999727
0.999701
0.999608
0.999665
0.999699
0.999706
0.99971
0.999714
0.99972
0.999726
0.999733
0.999739
0.999745
0.999752
0.99976
0.999768
0.999658
0.999684
0.999698
0.999706
0.999714
0.999721
0.999728
0.999734
0.99974
0.999747
0.999753
0.999761
0.999769
0.999663
0.99968
0.999692
0.999703
0.999712
0.99972
0.999728
0.999734
0.999741
0.999747
0.999754
0.999761
0.999769
0.999667
0.999679
0.99969
0.999701
0.999711
0.99972
0.999727
0.999734
0.99974
0.999747
0.999753
0.99976
0.999768
0.999669
0.999679
0.99969
0.9997
0.99971
0.999719
0.999727
0.999733
0.99974
0.999746
0.999753
0.99976
0.999767
0.99967
0.999681
0.999692
0.999702
0.999711
0.999719
0.999726
0.999733
0.999739
0.999745
0.999752
0.999759
0.999766
0.99967
0.999686
0.999699
0.999706
0.999713
0.99972
0.999726
0.999732
0.999738
0.999744
0.999751
0.999758
0.999765
0.999675
0.999711
0.999711
0.999712
0.999715
0.999721
0.999726
0.999732
0.999737
0.999744
0.99975
0.999757
0.999766
0.999769
0.999749
0.999727
0.99972
0.999719
0.999722
0.999726
0.99973
0.999736
0.999742
0.999748
0.999755
0.999762
0.999974
0.999797
0.999747
0.999729
0.999723
0.999723
0.999725
0.999729
0.999734
0.99974
0.999746
0.999753
0.999761
1.0001
0.999842
0.999765
0.999737
0.999726
0.999723
0.999724
0.999727
0.999732
0.999738
0.999744
0.999751
0.999759
1.00012
0.999873
0.999777
0.999742
0.999728
0.999723
0.999723
0.999726
0.99973
0.999736
0.999742
0.999749
0.999756
1.00012
0.999878
0.999784
0.999744
0.999728
0.999722
0.999721
0.999724
0.999728
0.999734
0.99974
0.999746
0.999753
1.00011
0.999876
0.999784
0.999743
0.999726
0.99972
0.999719
0.999721
0.999725
0.999731
0.999736
0.999742
0.999749
1.00012
0.999872
0.999777
0.99974
0.999724
0.999719
0.999718
0.999719
0.999723
0.999728
0.999732
0.999736
0.999742
1.00012
0.999849
0.999768
0.999736
0.999723
0.999718
0.999717
0.999718
0.999721
0.999725
0.999727
0.99973
0.999731
1.00003
0.999818
0.999757
0.999734
0.999723
0.999718
0.999717
0.999719
0.999721
0.999724
0.999723
0.999719
0.999717
0.999827
0.999786
0.999752
0.999734
0.999724
0.99972
0.999719
0.99972
0.999722
0.999724
0.999721
0.999706
0.999673
0.999716
0.999758
0.999748
0.999735
0.999726
0.999722
0.999721
0.999722
0.999724
0.999726
0.999723
0.999706
0.999671
0.999658
0.999694
0.999704
0.999706
0.99971
0.999716
0.999723
0.999731
0.999738
0.999745
0.999753
0.999762
0.999772
0.999646
0.999679
0.999693
0.999703
0.99971
0.999718
0.999726
0.999733
0.99974
0.999747
0.999755
0.999763
0.999772
0.999653
0.999674
0.999689
0.9997
0.999709
0.999718
0.999726
0.999734
0.999741
0.999748
0.999755
0.999763
0.999772
0.999657
0.999674
0.999687
0.999699
0.999708
0.999717
0.999726
0.999734
0.999741
0.999748
0.999755
0.999763
0.999772
0.99966
0.999675
0.999688
0.999698
0.999708
0.999717
0.999726
0.999734
0.999741
0.999747
0.999755
0.999762
0.999771
0.999661
0.999677
0.999689
0.999699
0.999708
0.999717
0.999726
0.999733
0.99974
0.999747
0.999754
0.999762
0.99977
0.99966
0.999679
0.99969
0.999701
0.99971
0.999718
0.999726
0.999733
0.99974
0.999746
0.999753
0.999761
0.99977
0.999659
0.999677
0.999695
0.999705
0.999712
0.999719
0.999726
0.999733
0.999739
0.999745
0.999752
0.99976
0.999769
0.999629
0.999689
0.999706
0.999711
0.999715
0.99972
0.999726
0.999732
0.999738
0.999744
0.999751
0.999758
0.999767
0.999715
0.999724
0.99972
0.999719
0.999719
0.999722
0.999726
0.999731
0.999737
0.999743
0.999749
0.999757
0.999765
0.999687
0.99974
0.999732
0.999725
0.999722
0.999723
0.999726
0.99973
0.999735
0.999741
0.999748
0.999755
0.999763
0.999687
0.999738
0.999738
0.999729
0.999724
0.999723
0.999725
0.999729
0.999734
0.99974
0.999746
0.999753
0.999761
0.999686
0.999739
0.999737
0.99973
0.999724
0.999723
0.999724
0.999727
0.999732
0.999737
0.999744
0.99975
0.999758
0.999686
0.999738
0.999736
0.999729
0.999723
0.999721
0.999722
0.999725
0.999729
0.999735
0.999741
0.999747
0.999754
0.999687
0.999736
0.999736
0.999727
0.999721
0.99972
0.999721
0.999723
0.999727
0.999732
0.999737
0.999743
0.999749
0.999686
0.99974
0.999732
0.999725
0.99972
0.999719
0.999719
0.999722
0.999725
0.999729
0.999734
0.999738
0.999743
0.999733
0.999728
0.999728
0.999724
0.999719
0.999718
0.999718
0.999721
0.999724
0.999727
0.99973
0.999733
0.999735
0.999644
0.999726
0.99973
0.999724
0.99972
0.999718
0.999719
0.999721
0.999723
0.999726
0.999727
0.999723
0.999721
0.999693
0.999721
0.999731
0.999727
0.999722
0.99972
0.99972
0.999722
0.999724
0.999727
0.999728
0.999729
0.999729
0.999662
0.999705
0.999704
0.999705
0.999708
0.999715
0.999723
0.999731
0.999738
0.999746
0.999755
0.999764
0.999774
0.999645
0.999673
0.999693
0.999701
0.999708
0.999716
0.999724
0.999732
0.99974
0.999747
0.999756
0.999765
0.999775
0.999644
0.999673
0.999686
0.999699
0.999707
0.999716
0.999725
0.999733
0.999741
0.999748
0.999756
0.999765
0.999775
0.99965
0.999668
0.999685
0.999697
0.999707
0.999716
0.999725
0.999733
0.999741
0.999748
0.999756
0.999765
0.999774
0.999653
0.999673
0.999685
0.999697
0.999706
0.999716
0.999725
0.999733
0.999741
0.999748
0.999756
0.999764
0.999774
0.999655
0.999673
0.999686
0.999697
0.999706
0.999716
0.999725
0.999733
0.999741
0.999748
0.999755
0.999764
0.999773
0.999655
0.999673
0.999687
0.999698
0.999707
0.999716
0.999725
0.999733
0.99974
0.999747
0.999755
0.999763
0.999772
0.999651
0.999674
0.999688
0.9997
0.999709
0.999717
0.999725
0.999733
0.99974
0.999747
0.999754
0.999762
0.999771
0.999648
0.999672
0.999693
0.999704
0.999711
0.999719
0.999726
0.999733
0.999739
0.999746
0.999753
0.999761
0.99977
0.999655
0.999695
0.999703
0.999709
0.999714
0.99972
0.999726
0.999733
0.999739
0.999745
0.999752
0.99976
0.999768
0.999652
0.999694
0.999709
0.999714
0.999717
0.999721
0.999726
0.999732
0.999738
0.999744
0.999751
0.999758
0.999766
0.999645
0.999694
0.999709
0.999715
0.999718
0.999721
0.999726
0.999731
0.999737
0.999743
0.999749
0.999756
0.999764
0.999641
0.99969
0.999708
0.999715
0.999718
0.999721
0.999725
0.99973
0.999735
0.999741
0.999747
0.999754
0.999762
0.999639
0.999688
0.999707
0.999714
0.999717
0.99972
0.999723
0.999728
0.999733
0.999739
0.999745
0.999752
0.999759
0.999636
0.999687
0.999705
0.999713
0.999716
0.999718
0.999721
0.999725
0.99973
0.999736
0.999742
0.999749
0.999757
0.999634
0.999681
0.999707
0.999713
0.999714
0.999716
0.999719
0.999723
0.999728
0.999733
0.999739
0.999746
0.999754
0.999602
0.999697
0.999711
0.999712
0.999712
0.999714
0.999717
0.99972
0.999725
0.99973
0.999737
0.999743
0.999751
0.999723
0.999713
0.999712
0.999711
0.999712
0.999714
0.999716
0.999719
0.999723
0.999728
0.999734
0.999743
0.99975
0.999732
0.99974
0.999723
0.999719
0.999719
0.999721
0.999723
0.999725
0.999728
0.999732
0.999738
0.99975
0.999786
0.999732
0.999711
0.999705
0.999704
0.999708
0.999714
0.999722
0.999731
0.999739
0.999747
0.999755
0.999765
0.999776
0.99962
0.999684
0.999695
0.999702
0.999708
0.999715
0.999724
0.999732
0.99974
0.999748
0.999756
0.999766
0.999777
0.999646
0.999668
0.99969
0.9997
0.999707
0.999716
0.999725
0.999733
0.999741
0.999748
0.999757
0.999766
0.999777
0.999632
0.999669
0.999686
0.999698
0.999707
0.999716
0.999725
0.999733
0.999741
0.999748
0.999757
0.999766
0.999776
0.999654
0.999671
0.999686
0.999697
0.999706
0.999716
0.999725
0.999734
0.999741
0.999748
0.999756
0.999766
0.999776
0.999652
0.999674
0.999687
0.999697
0.999706
0.999716
0.999725
0.999734
0.999741
0.999748
0.999756
0.999765
0.999775
0.999652
0.999674
0.999687
0.999698
0.999706
0.999716
0.999725
0.999734
0.999741
0.999748
0.999756
0.999764
0.999774
0.999651
0.999673
0.999688
0.999698
0.999707
0.999716
0.999725
0.999734
0.999741
0.999748
0.999755
0.999764
0.999773
0.99965
0.999674
0.999688
0.999699
0.999708
0.999717
0.999726
0.999734
0.999741
0.999747
0.999755
0.999763
0.999772
0.99965
0.999678
0.999694
0.999703
0.999711
0.999719
0.999726
0.999734
0.99974
0.999747
0.999754
0.999762
0.999771
0.999653
0.99968
0.999695
0.999705
0.999712
0.999719
0.999727
0.999734
0.99974
0.999746
0.999753
0.999761
0.999769
0.999647
0.999678
0.999695
0.999705
0.999713
0.99972
0.999726
0.999733
0.999739
0.999745
0.999752
0.999759
0.999768
0.999636
0.999673
0.999693
0.999705
0.999712
0.999719
0.999725
0.999732
0.999738
0.999744
0.99975
0.999758
0.999766
0.999634
0.999669
0.999691
0.999704
0.999711
0.999718
0.999724
0.99973
0.999736
0.999742
0.999749
0.999756
0.999764
0.999628
0.999668
0.999693
0.999703
0.99971
0.999715
0.999721
0.999727
0.999733
0.999739
0.999747
0.999754
0.999763
0.999623
0.999683
0.999696
0.999702
0.999707
0.999712
0.999717
0.999723
0.999729
0.999736
0.999745
0.999754
0.999763
0.999694
0.999701
0.999696
0.999698
0.999702
0.999707
0.999712
0.999717
0.999723
0.99973
0.99974
0.999755
0.999769
0.999861
0.999704
0.999684
0.999685
0.999689
0.999695
0.9997
0.999706
0.999712
0.99972
0.99973
0.999749
0.999791
0.999882
0.999688
0.999655
0.999653
0.999658
0.999664
0.999671
0.999679
0.999688
0.999698
0.99971
0.999732
0.999796
0.99977
0.999719
0.999707
0.999706
0.999708
0.999714
0.999723
0.999731
0.999739
0.999747
0.999756
0.999766
0.999778
0.999703
0.999695
0.999702
0.999705
0.999709
0.999716
0.999724
0.999732
0.99974
0.999748
0.999756
0.999766
0.999778
0.999638
0.999689
0.999697
0.999703
0.999709
0.999716
0.999725
0.999733
0.999741
0.999748
0.999757
0.999767
0.999778
0.99963
0.999677
0.999695
0.999702
0.999709
0.999717
0.999725
0.999734
0.999741
0.999748
0.999757
0.999766
0.999777
0.999643
0.999676
0.999692
0.999701
0.999708
0.999717
0.999725
0.999734
0.999741
0.999748
0.999757
0.999766
0.999777
0.999655
0.999677
0.999691
0.9997
0.999708
0.999717
0.999726
0.999734
0.999741
0.999749
0.999756
0.999766
0.999776
0.999655
0.99968
0.999692
0.999701
0.999708
0.999717
0.999726
0.999734
0.999742
0.999748
0.999756
0.999765
0.999775
0.999654
0.999679
0.999693
0.9997
0.999708
0.999717
0.999726
0.999734
0.999742
0.999748
0.999756
0.999765
0.999775
0.999652
0.999676
0.999688
0.999699
0.999708
0.999717
0.999726
0.999735
0.999742
0.999748
0.999756
0.999764
0.999774
0.999658
0.999677
0.99969
0.999701
0.999709
0.999718
0.999727
0.999735
0.999742
0.999748
0.999755
0.999764
0.999773
0.999663
0.999677
0.99969
0.999701
0.99971
0.999719
0.999727
0.999735
0.999742
0.999748
0.999755
0.999763
0.999772
0.999659
0.999674
0.999689
0.999701
0.99971
0.999719
0.999727
0.999734
0.999741
0.999747
0.999754
0.999762
0.99977
0.999644
0.999669
0.999686
0.999699
0.999709
0.999718
0.999726
0.999733
0.99974
0.999746
0.999753
0.999761
0.999769
0.999632
0.999664
0.999683
0.999697
0.999707
0.999716
0.999724
0.999731
0.999738
0.999744
0.999751
0.999759
0.999768
0.999626
0.999659
0.99968
0.999695
0.999706
0.999714
0.999722
0.999729
0.999735
0.999742
0.99975
0.999758
0.999766
0.999619
0.999651
0.999679
0.999694
0.999704
0.999711
0.999718
0.999725
0.999732
0.999739
0.999747
0.999756
0.999766
0.999582
0.999655
0.999682
0.999693
0.9997
0.999707
0.999714
0.99972
0.999727
0.999735
0.999744
0.999754
0.999766
0.999672
0.999684
0.999683
0.999688
0.999694
0.999701
0.999708
0.999714
0.999721
0.999729
0.99974
0.999755
0.999767
0.999663
0.999688
0.999679
0.99968
0.999686
0.999693
0.999699
0.999706
0.999713
0.999721
0.999733
0.999753
0.999794
0.999739
0.999716
0.99971
0.999708
0.999709
0.999715
0.999723
0.999731
0.999738
0.999746
0.999755
0.999766
0.999778
0.999632
0.999708
0.999709
0.999708
0.99971
0.999716
0.999724
0.999732
0.999739
0.999747
0.999756
0.999766
0.999778
0.999667
0.999691
0.999706
0.999708
0.999711
0.999717
0.999725
0.999733
0.99974
0.999747
0.999756
0.999766
0.999778
0.999659
0.999695
0.999703
0.999708
0.999711
0.999717
0.999725
0.999733
0.999741
0.999748
0.999756
0.999766
0.999778
0.999672
0.999696
0.999704
0.999707
0.999711
0.999718
0.999726
0.999734
0.999741
0.999748
0.999756
0.999766
0.999777
0.999669
0.999696
0.999703
0.999707
0.999711
0.999718
0.999726
0.999734
0.999741
0.999748
0.999756
0.999766
0.999777
0.999671
0.999696
0.999704
0.999706
0.99971
0.999718
0.999726
0.999735
0.999742
0.999748
0.999756
0.999766
0.999776
0.99967
0.9997
0.999701
0.999705
0.99971
0.999718
0.999727
0.999735
0.999742
0.999749
0.999756
0.999765
0.999776
0.999662
0.999676
0.999694
0.999703
0.99971
0.999719
0.999727
0.999735
0.999742
0.999749
0.999756
0.999765
0.999775
0.999661
0.999681
0.999691
0.999702
0.999711
0.999719
0.999728
0.999736
0.999743
0.999749
0.999756
0.999765
0.999774
0.999664
0.999679
0.999692
0.999702
0.99971
0.99972
0.999728
0.999736
0.999743
0.999749
0.999756
0.999764
0.999774
0.999658
0.999676
0.999689
0.9997
0.99971
0.999719
0.999728
0.999736
0.999743
0.999749
0.999756
0.999764
0.999773
0.999645
0.999669
0.999685
0.999698
0.999708
0.999718
0.999727
0.999735
0.999742
0.999748
0.999755
0.999763
0.999772
0.999638
0.999663
0.999681
0.999696
0.999706
0.999716
0.999725
0.999733
0.99974
0.999747
0.999754
0.999762
0.99977
0.999634
0.999659
0.999678
0.999693
0.999704
0.999714
0.999723
0.999731
0.999738
0.999745
0.999752
0.99976
0.999769
0.999628
0.999656
0.999675
0.999691
0.999702
0.999712
0.99972
0.999728
0.999735
0.999742
0.99975
0.999759
0.999768
0.999625
0.999651
0.999676
0.999691
0.999701
0.99971
0.999718
0.999725
0.999732
0.99974
0.999748
0.999757
0.999767
0.999633
0.999673
0.999683
0.999692
0.9997
0.999707
0.999715
0.999721
0.999728
0.999737
0.999746
0.999756
0.999768
0.999645
0.999674
0.999685
0.999692
0.999699
0.999707
0.999713
0.999719
0.999726
0.999734
0.999744
0.999759
0.999774
0.999696
0.999724
0.999717
0.99971
0.999709
0.999713
0.999721
0.999729
0.999737
0.999745
0.999754
0.999765
0.999778
0.999761
0.999729
0.999717
0.999711
0.99971
0.999715
0.999723
0.999731
0.999738
0.999745
0.999755
0.999766
0.999778
0.999725
0.999741
0.99972
0.999712
0.999711
0.999716
0.999724
0.999731
0.999739
0.999746
0.999755
0.999766
0.999778
0.99973
0.999733
0.999722
0.999713
0.999712
0.999717
0.999724
0.999732
0.999739
0.999747
0.999755
0.999766
0.999778
0.99973
0.999735
0.999721
0.999714
0.999712
0.999717
0.999725
0.999733
0.99974
0.999747
0.999755
0.999766
0.999777
0.999722
0.999731
0.999721
0.999714
0.999713
0.999718
0.999726
0.999734
0.999741
0.999747
0.999756
0.999766
0.999777
0.999726
0.999734
0.999718
0.999712
0.999712
0.999718
0.999726
0.999734
0.999741
0.999748
0.999756
0.999765
0.999777
0.999751
0.999725
0.999713
0.99971
0.999712
0.999719
0.999727
0.999735
0.999742
0.999748
0.999756
0.999765
0.999776
0.999645
0.999696
0.999705
0.999709
0.999713
0.99972
0.999728
0.999736
0.999742
0.999749
0.999756
0.999766
0.999776
0.999675
0.999683
0.999699
0.999707
0.999713
0.99972
0.999729
0.999736
0.999743
0.99975
0.999757
0.999766
0.999776
0.99967
0.999686
0.999695
0.999705
0.999712
0.999721
0.999729
0.999737
0.999744
0.99975
0.999757
0.999766
0.999775
0.999662
0.99968
0.999693
0.999703
0.999711
0.99972
0.999729
0.999737
0.999744
0.99975
0.999757
0.999765
0.999775
0.999652
0.999673
0.999688
0.9997
0.99971
0.999719
0.999728
0.999736
0.999743
0.99975
0.999757
0.999765
0.999774
0.999644
0.999667
0.999684
0.999697
0.999707
0.999717
0.999726
0.999734
0.999742
0.999748
0.999756
0.999764
0.999773
0.999641
0.999663
0.999681
0.999695
0.999705
0.999715
0.999724
0.999733
0.99974
0.999747
0.999755
0.999763
0.999772
0.99964
0.999661
0.999678
0.999692
0.999703
0.999714
0.999723
0.999731
0.999738
0.999745
0.999753
0.999761
0.99977
0.99964
0.999661
0.999677
0.999692
0.999703
0.999713
0.999721
0.999729
0.999736
0.999743
0.999751
0.99976
0.999769
0.999644
0.999666
0.999683
0.999693
0.999703
0.999712
0.999719
0.999726
0.999733
0.999741
0.999749
0.999758
0.999768
0.999659
0.99967
0.999683
0.999694
0.999703
0.999712
0.999718
0.999725
0.999731
0.999739
0.999748
0.999757
0.999765
0.999766
0.99975
0.999724
0.99971
0.999706
0.99971
0.999718
0.999727
0.999735
0.999743
0.999753
0.999765
0.999778
0.999882
0.999763
0.999725
0.999711
0.999708
0.999712
0.99972
0.999728
0.999736
0.999744
0.999753
0.999765
0.999778
0.99999
0.999784
0.99973
0.999713
0.999709
0.999713
0.999721
0.999729
0.999737
0.999744
0.999754
0.999765
0.999778
1.00001
0.999805
0.999736
0.999715
0.99971
0.999714
0.999722
0.99973
0.999738
0.999745
0.999754
0.999765
0.999778
1
0.999809
0.999741
0.999716
0.999711
0.999715
0.999723
0.999731
0.999738
0.999745
0.999754
0.999765
0.999777
0.99999
0.999807
0.999738
0.999717
0.999712
0.999716
0.999724
0.999732
0.999739
0.999746
0.999755
0.999765
0.999777
0.999987
0.99979
0.999733
0.999715
0.999712
0.999717
0.999725
0.999733
0.99974
0.999747
0.999755
0.999765
0.999777
0.999928
0.999768
0.999725
0.999714
0.999713
0.999718
0.999726
0.999734
0.999741
0.999747
0.999755
0.999765
0.999777
0.999777
0.999743
0.999721
0.999714
0.999714
0.999719
0.999727
0.999735
0.999742
0.999748
0.999756
0.999766
0.999777
0.999684
0.999717
0.999714
0.999713
0.999715
0.999721
0.999729
0.999736
0.999743
0.999749
0.999757
0.999766
0.999777
0.999676
0.999694
0.999706
0.99971
0.999715
0.999722
0.999729
0.999737
0.999744
0.99975
0.999758
0.999766
0.999776
0.999667
0.999687
0.999698
0.999707
0.999714
0.999721
0.99973
0.999737
0.999744
0.999751
0.999758
0.999766
0.999776
0.999655
0.999679
0.999694
0.999704
0.999712
0.99972
0.999729
0.999737
0.999744
0.999751
0.999758
0.999766
0.999776
0.999647
0.999674
0.999689
0.999701
0.99971
0.999719
0.999728
0.999736
0.999743
0.99975
0.999757
0.999766
0.999775
0.999645
0.99967
0.999687
0.999698
0.999708
0.999717
0.999726
0.999734
0.999742
0.999749
0.999757
0.999765
0.999774
0.999645
0.999665
0.99968
0.999695
0.999706
0.999716
0.999725
0.999733
0.99974
0.999748
0.999755
0.999764
0.999773
0.999648
0.999666
0.999681
0.999694
0.999706
0.999716
0.999724
0.999732
0.999739
0.999746
0.999754
0.999762
0.999771
0.999655
0.999669
0.999683
0.999696
0.999706
0.999716
0.999723
0.999731
0.999737
0.999745
0.999752
0.99976
0.999768
0.999668
0.999673
0.999684
0.999696
0.999706
0.999716
0.999723
0.999729
0.999735
0.999743
0.99975
0.999757
0.999763
0.999647
0.999703
0.999705
0.999701
0.9997
0.999705
0.999714
0.999723
0.999732
0.999741
0.999751
0.999764
0.999779
0.999685
0.999706
0.999705
0.999701
0.999701